
  ___ ___ ___ _ _ _  
 |   |   |_  | | | | 
 | | | | | . | | | | 
 |__ |  _|___|_____|  0.11.0.13053
 |___|_|             

User:  aborges@fend01.cluster
Date:  Tue Jun  6 22:07:17 2017
Arch:  x86_64
Pid:   29994
gpaw:  /lustre/hpc/kemi/falco/gpaw-0.11.0.13004/gpaw
_gpaw: /lustre/hpc/kemi/falco/gpaw-0.11.0.13004/build/lib.linux-x86_64-2.7/_gpaw.so
ase:   /lustre/hpc/kemi/falco/ase-3.9.1/ase (version 3.9.1)
numpy: /lustre/hpc/kemi/falco/anaconda-2.1.0/lib/python2.7/site-packages/numpy (version 1.9.0)
scipy: /lustre/hpc/kemi/falco/anaconda-2.1.0/lib/python2.7/site-packages/scipy (version 0.14.0)
units: Angstrom and eV
cores: 1

Memory estimate
---------------
Process memory now: 32.38 MiB
Calculator  77.41 MiB
    Density  33.91 MiB
        Arrays  20.79 MiB
        Localized functions  5.12 MiB
        Mixer  8.00 MiB
    Hamiltonian  29.50 MiB
        Arrays  13.60 MiB
        XC  0.00 MiB
        Poisson  15.50 MiB
        vbar  0.40 MiB
    Wavefunctions  14.00 MiB
        C [qnM]  0.02 MiB
        S, T [2 x qmm]  0.18 MiB
        P [aqMi]  0.01 MiB
        TCI  0.00 MiB
        BasisFunctions  13.79 MiB
        Eigensolver  0.00 MiB

Positions:
  0 C     4.0742    4.7954    3.9380
  1 C     3.7150    4.1074    5.1194
  2 C     3.3265    4.8155    6.2797
  3 C     3.3008    6.2247    6.2512
  4 C     3.6555    6.9166    5.0743
  5 C     4.0414    6.2040    3.9206
  6 H     3.7368    3.0000    5.1364
  7 H     3.0000    6.7919    7.1538
  8 H     3.6286    8.0233    5.0557
  9 H     4.3182    6.7541    3.0000
 10 H     4.3770    4.2298    3.0354
 11 H     3.0476    4.2670    7.2002

Memory usage: 268.29 MiB
=========================================================
Timing:                            incl.     excl.
=========================================================
Basic WFS set positions:           0.001     0.001   0.0% |
Basis functions set positions:     0.058     0.058   0.2% |
LCAO WFS Initialize:               3.693     0.029   0.1% |
 Hamiltonian:                      3.665     0.002   0.0% |
  Atomic:                          0.178     0.002   0.0% |
   XC Correction:                  0.176     0.176   0.7% |
  Communicate energies:            0.000     0.000   0.0% |
  Hartree integrate/restrict:      0.013     0.013   0.0% |
  Initialize Hamiltonian:          0.002     0.002   0.0% |
  Poisson:                         3.111     3.111  11.6% |----|
  XC 3D grid:                      0.355     0.355   1.3% ||
  vbar:                            0.004     0.004   0.0% |
TCI: Calculate S, T, P:            0.182     0.182   0.7% |
TCI: Evaluate splines:             0.298     0.298   1.1% |
Other:                            22.532    22.532  84.2% |---------------------------------|
=========================================================
Total:                                      26.764 100.0%
=========================================================
date: Tue Jun  6 22:07:44 2017
