
  ___ ___ ___ _ _ _  
 |   |   |_  | | | | 
 | | | | | . | | | | 
 |__ |  _|___|_____|  0.11.0.13053
 |___|_|             

User:  aborges@node321.cluster
Date:  Tue May  2 10:31:11 2017
Arch:  x86_64
Pid:   18493
gpaw:  /kemi/falco/gpaw-0.11.0.13004/gpaw
_gpaw: /kemi/falco/gpaw-0.11.0.13004/build/bin.linux-x86_64-2.7/gpaw-python
ase:   /kemi/falco/ase-3.9.1/ase (version 3.9.1)
numpy: /kemi/falco/anaconda-2.1.0/lib/python2.7/site-packages/numpy (version 1.9.0)
scipy: /kemi/falco/anaconda-2.1.0/lib/python2.7/site-packages/scipy (version 0.14.0)
units: Angstrom and eV
cores: 8

Memory estimate
---------------
Process memory now: 41.72 MiB
Calculator  9.79 MiB
    Density  4.58 MiB
        Arrays  3.53 MiB
        Localized functions  0.27 MiB
        Mixer  0.77 MiB
    Hamiltonian  4.98 MiB
        Arrays  2.31 MiB
        XC  0.00 MiB
        Poisson  2.64 MiB
        vbar  0.02 MiB
    Wavefunctions  0.24 MiB
        C [qnM]  0.00 MiB
        S, T [2 x qmm]  0.00 MiB
        P [aqMi]  0.00 MiB
        TCI  0.00 MiB
        BasisFunctions  0.24 MiB
        Eigensolver  0.00 MiB

Positions:
  0 C     4.3567    4.8472    5.0075
  1 H     5.4267    4.8472    5.0075
  2 H     4.0000    5.7451    5.4674
  3 H     4.0000    4.0000    5.5552
  4 H     4.0000    4.7965    4.0000

       .----------------------.  
      /|                      |  
     / |                      |  
    /  |                      |  
   /   |                      |  
  /    |                      |  
 *     |                      |  
 |     |                      |  
 |     |      H               |  
 |     |     H C H            |  
 |     |      H               |  
 |     |                      |  
 |     .----------------------.  
 |    /                      /   
 |   /                      /    
 |  /                      /     
 | /                      /      
 |/                      /       
 *----------------------*        

Unit Cell:
           Periodic     X           Y           Z      Points  Spacing
  --------------------------------------------------------------------
  1. axis:    no     9.426670    0.000000    0.000000    52     0.1813
  2. axis:    no     0.000000    9.745100    0.000000    56     0.1740
  3. axis:    no     0.000000    0.000000    9.555220    52     0.1838

C-setup:
  name   : Carbon
  id     : 4aa54d4b901d75f77cc0ea3eec22967b
  Z      : 6
  valence: 4
  core   : 2
  charge : 0.0
  file   : /kemi/falco/gpaw-setups-0.9.9672/C.PBE.gz
  cutoffs: 0.64(comp), 1.14(filt), 1.14(core), lmax=2
  valence states:
            energy   radius
    2s(2.00) -13.751   0.635
    2p(2.00)  -5.284   0.635
    *s      13.461   0.635
    *p      21.927   0.635
    *d       0.000   0.635

LCAO basis set for C:
  Name: sz
  Basis set was loaded from file ./C.sz.basis
  Number of radial functions: 2
  Number of spherical harmonics: 4
    l=0, rc=5.5938 Bohr: 2s-sz confined orbital
    l=1, rc=6.8750 Bohr: 2p-sz confined orbital

H-setup:
  name   : Hydrogen
  id     : d65de229564ff8ea4db303e23b6d1ecf
  Z      : 1
  valence: 1
  core   : 0
  charge : 0.0
  file   : /kemi/falco/gpaw-setups-0.9.9672/H.PBE.gz
  cutoffs: 0.48(comp), 0.85(filt), 0.53(core), lmax=2
  valence states:
            energy   radius
    1s(1.00)  -6.494   0.476
    *s      20.717   0.476
    *p       0.000   0.476

LCAO basis set for H:
  Name: sz
  Basis set was loaded from file ./H.sz.basis
  Number of radial functions: 1
  Number of spherical harmonics: 1
    l=0, rc=6.6406 Bohr: 1s-sz confined orbital

Using the PBE Exchange-Correlation Functional.
Spin-Paired Calculation
Total Charge: 0.000000
Fermi Temperature: 0.000000
Wave functions: LCAO
    Diagonalizer: Serial LAPACK
    Atomic Correction: dense with blas
    Datatype: float
Eigensolver: LCAO using direct dense diagonalizer
XC and Coulomb potentials evaluated on a 104*112*104 grid
Interpolation: tri-quintic (5. degree polynomial)
Poisson solver: Jacobi solver with 4 multi-grid levels
    Coarsest grid: 13 x 14 x 13 points
    Stencil: 6*3+1=19 point O(h^6) finite-difference Laplacian
    Tolerance: 2.000000e-10
    Max iterations: 1000
Reference Energy: -1077.589146

Total number of cores used: 8
Domain Decomposition: 2 x 2 x 2

Symmetries present (total): 1

  ( 1  0  0)
  ( 0  1  0)
  ( 0  0  1)

1 k-point (Gamma)
1 k-point in the Irreducible Part of the Brillouin Zone

          k-points in crystal coordinates                weights
   0:     0.00000000    0.00000000    0.00000000          1/1

Mixer Type: Mixer
Linear Mixing Parameter: 0.25
Mixing with 3 Old Densities
No Damping of Long Wave Oscillations

Convergence Criteria:
    Total Energy Change: 0.0005 eV / electron
    Integral of Absolute Density Change: 0.0001 electrons
    Integral of Absolute Eigenstate Change: 4e-08 eV^2
Number of Atoms: 5
Number of Atomic Orbitals: 8
Number of Bands in Calculation: 8
Bands to Converge: Occupied States Only
Number of Valence Electrons: 8
                     log10-error:    Total        Iterations:
           Time      WFS    Density  Energy       Fermi  Poisson
iter:   1  10:31:13                 -19.377184    0      24     
iter:   2  10:31:13         -0.99   -19.212294    0      13     
iter:   3  10:31:14         -1.23   -19.193599    0      13     
iter:   4  10:31:14         -1.59   -19.206734    0      10     
iter:   5  10:31:15         -3.22   -19.206864    0      4      
iter:   6  10:31:15         -3.96   -19.206896    0      2      
iter:   7  10:31:15         -4.09   -19.206934    0      3      
------------------------------------
Converged After 7 Iterations.

Energy Contributions Relative to Reference Atoms:(reference = -1077.589146)
-------------------------
Kinetic:         +1.426439
Potential:       -6.720672
External:        +0.000000
XC:             -13.973038
Entropy (-ST):   -0.000000
Local:           +0.060338
-------------------------
Free Energy:    -19.206934
Zero Kelvin:    -19.206934

Fermi Level: -3.81060
 Band  Eigenvalues  Occupancy
    0    -19.69763    2.00000
    1    -11.85630    2.00000
    2    -11.85543    2.00000
    3    -11.85509    2.00000
    4      4.23389    0.00000
    5      5.42713    0.00000
    6      5.43022    0.00000
    7      5.43184    0.00000


Dipole Moment: [  4.80146497e-06   1.27556615e-05   1.85143743e-06]

Forces in eV/Ang:
  0 C     0.01408    0.00812    0.00326
  1 H     4.48872    0.00075    0.00128
  2 H    -1.50052    3.76804    1.93033
  3 H    -1.49968   -3.55517    2.30360
  4 H    -1.49620   -0.21256   -4.23020

Positions:
  0 C     4.3573    4.8476    5.0077
  1 H     5.6267    4.8472    5.0076
  2 H     3.9332    5.9130    5.5534
  3 H     3.9332    3.8416    5.6579
  4 H     3.9333    4.7870    3.8115

       .----------------------.  
      /|                      |  
     / |                      |  
    /  |                      |  
   /   |                      |  
  /    |                      |  
 *     |                      |  
 |     |      H               |  
 |     |                      |  
 |     |     H C  H           |  
 |     |      H               |  
 |     |                      |  
 |     .----------------------.  
 |    /                      /   
 |   /                      /    
 |  /                      /     
 | /                      /      
 |/                      /       
 *----------------------*        

Unit Cell:
           Periodic     X           Y           Z      Points  Spacing
  --------------------------------------------------------------------
  1. axis:    no     9.426670    0.000000    0.000000    52     0.1813
  2. axis:    no     0.000000    9.745100    0.000000    56     0.1740
  3. axis:    no     0.000000    0.000000    9.555220    52     0.1838

C-setup:
  name   : Carbon
  id     : 4aa54d4b901d75f77cc0ea3eec22967b
  Z      : 6
  valence: 4
  core   : 2
  charge : 0.0
  file   : /kemi/falco/gpaw-setups-0.9.9672/C.PBE.gz
  cutoffs: 0.64(comp), 1.14(filt), 1.14(core), lmax=2
  valence states:
            energy   radius
    2s(2.00) -13.751   0.635
    2p(2.00)  -5.284   0.635
    *s      13.461   0.635
    *p      21.927   0.635
    *d       0.000   0.635

LCAO basis set for C:
  Name: sz
  Basis set was loaded from file ./C.sz.basis
  Number of radial functions: 2
  Number of spherical harmonics: 4
    l=0, rc=5.5938 Bohr: 2s-sz confined orbital
    l=1, rc=6.8750 Bohr: 2p-sz confined orbital

H-setup:
  name   : Hydrogen
  id     : d65de229564ff8ea4db303e23b6d1ecf
  Z      : 1
  valence: 1
  core   : 0
  charge : 0.0
  file   : /kemi/falco/gpaw-setups-0.9.9672/H.PBE.gz
  cutoffs: 0.48(comp), 0.85(filt), 0.53(core), lmax=2
  valence states:
            energy   radius
    1s(1.00)  -6.494   0.476
    *s      20.717   0.476
    *p       0.000   0.476

LCAO basis set for H:
  Name: sz
  Basis set was loaded from file ./H.sz.basis
  Number of radial functions: 1
  Number of spherical harmonics: 1
    l=0, rc=6.6406 Bohr: 1s-sz confined orbital

Using the PBE Exchange-Correlation Functional.
Spin-Paired Calculation
Total Charge: 0.000000
Fermi Temperature: 0.000000
Wave functions: LCAO
    Diagonalizer: Serial LAPACK
    Atomic Correction: dense with blas
    Datatype: float
Eigensolver: LCAO using direct dense diagonalizer
XC and Coulomb potentials evaluated on a 104*112*104 grid
Interpolation: tri-quintic (5. degree polynomial)
Poisson solver: Jacobi solver with 4 multi-grid levels
    Coarsest grid: 13 x 14 x 13 points
    Stencil: 6*3+1=19 point O(h^6) finite-difference Laplacian
    Tolerance: 2.000000e-10
    Max iterations: 1000
Reference Energy: -1077.589146

Total number of cores used: 8
Domain Decomposition: 2 x 2 x 2

Symmetries present (total): 1

  ( 1  0  0)
  ( 0  1  0)
  ( 0  0  1)

1 k-point (Gamma)
1 k-point in the Irreducible Part of the Brillouin Zone

          k-points in crystal coordinates                weights
   0:     0.00000000    0.00000000    0.00000000          1/1

Mixer Type: Mixer
Linear Mixing Parameter: 0.25
Mixing with 3 Old Densities
No Damping of Long Wave Oscillations

Convergence Criteria:
    Total Energy Change: 0.0005 eV / electron
    Integral of Absolute Density Change: 0.0001 electrons
    Integral of Absolute Eigenstate Change: 4e-08 eV^2
Number of Atoms: 5
Number of Atomic Orbitals: 8
Number of Bands in Calculation: 8
Bands to Converge: Occupied States Only
Number of Valence Electrons: 8
                     log10-error:    Total        Iterations:
           Time      WFS    Density  Energy       Fermi  Poisson
iter:   1  10:31:16                 -20.277106    0      16     
iter:   2  10:31:16         -0.95   -19.970524    0      13     
iter:   3  10:31:17         -1.42   -19.932990    0      11     
iter:   4  10:31:17         -2.88   -19.934533    0      6      
iter:   5  10:31:18         -3.12   -19.934736    0      5      
iter:   6  10:31:18         -4.23   -19.934560    0      1      
------------------------------------
Converged After 6 Iterations.

Energy Contributions Relative to Reference Atoms:(reference = -1077.589146)
-------------------------
Kinetic:        -15.660333
Potential:       +4.955292
External:        +0.000000
XC:              -9.301689
Entropy (-ST):   -0.000000
Local:           +0.072170
-------------------------
Free Energy:    -19.934560
Zero Kelvin:    -19.934560

Fermi Level: -4.61124
 Band  Eigenvalues  Occupancy
    0    -17.45243    2.00000
    1    -10.25621    2.00000
    2    -10.25068    2.00000
    3    -10.24775    2.00000
    4      1.02526    0.00000
    5      2.52519    0.00000
    6      2.53160    0.00000
    7      2.54587    0.00000


Dipole Moment: [ -5.33010276e-05  -2.48705777e-05  -3.13818712e-05]

Forces in eV/Ang:
  0 C    -0.01967   -0.00604    0.00023
  1 H    -1.63830    0.00127    0.00218
  2 H     0.54973   -1.38464   -0.70738
  3 H     0.55456    1.31643   -0.85098
  4 H     0.54935    0.07931    1.55972

Positions:
  0 C     4.3571    4.8474    5.0076
  1 H     5.5492    4.8472    5.0076
  2 H     3.9590    5.8480    5.5201
  3 H     3.9591    3.9029    5.6181
  4 H     3.9592    4.7907    3.8845

       .----------------------.  
      /|                      |  
     / |                      |  
    /  |                      |  
   /   |                      |  
  /    |                      |  
 *     |                      |  
 |     |      H               |  
 |     |                      |  
 |     |     H C  H           |  
 |     |      H               |  
 |     |                      |  
 |     .----------------------.  
 |    /                      /   
 |   /                      /    
 |  /                      /     
 | /                      /      
 |/                      /       
 *----------------------*        

Unit Cell:
           Periodic     X           Y           Z      Points  Spacing
  --------------------------------------------------------------------
  1. axis:    no     9.426670    0.000000    0.000000    52     0.1813
  2. axis:    no     0.000000    9.745100    0.000000    56     0.1740
  3. axis:    no     0.000000    0.000000    9.555220    52     0.1838

C-setup:
  name   : Carbon
  id     : 4aa54d4b901d75f77cc0ea3eec22967b
  Z      : 6
  valence: 4
  core   : 2
  charge : 0.0
  file   : /kemi/falco/gpaw-setups-0.9.9672/C.PBE.gz
  cutoffs: 0.64(comp), 1.14(filt), 1.14(core), lmax=2
  valence states:
            energy   radius
    2s(2.00) -13.751   0.635
    2p(2.00)  -5.284   0.635
    *s      13.461   0.635
    *p      21.927   0.635
    *d       0.000   0.635

LCAO basis set for C:
  Name: sz
  Basis set was loaded from file ./C.sz.basis
  Number of radial functions: 2
  Number of spherical harmonics: 4
    l=0, rc=5.5938 Bohr: 2s-sz confined orbital
    l=1, rc=6.8750 Bohr: 2p-sz confined orbital

H-setup:
  name   : Hydrogen
  id     : d65de229564ff8ea4db303e23b6d1ecf
  Z      : 1
  valence: 1
  core   : 0
  charge : 0.0
  file   : /kemi/falco/gpaw-setups-0.9.9672/H.PBE.gz
  cutoffs: 0.48(comp), 0.85(filt), 0.53(core), lmax=2
  valence states:
            energy   radius
    1s(1.00)  -6.494   0.476
    *s      20.717   0.476
    *p       0.000   0.476

LCAO basis set for H:
  Name: sz
  Basis set was loaded from file ./H.sz.basis
  Number of radial functions: 1
  Number of spherical harmonics: 1
    l=0, rc=6.6406 Bohr: 1s-sz confined orbital

Using the PBE Exchange-Correlation Functional.
Spin-Paired Calculation
Total Charge: 0.000000
Fermi Temperature: 0.000000
Wave functions: LCAO
    Diagonalizer: Serial LAPACK
    Atomic Correction: dense with blas
    Datatype: float
Eigensolver: LCAO using direct dense diagonalizer
XC and Coulomb potentials evaluated on a 104*112*104 grid
Interpolation: tri-quintic (5. degree polynomial)
Poisson solver: Jacobi solver with 4 multi-grid levels
    Coarsest grid: 13 x 14 x 13 points
    Stencil: 6*3+1=19 point O(h^6) finite-difference Laplacian
    Tolerance: 2.000000e-10
    Max iterations: 1000
Reference Energy: -1077.589146

Total number of cores used: 8
Domain Decomposition: 2 x 2 x 2

Symmetries present (total): 1

  ( 1  0  0)
  ( 0  1  0)
  ( 0  0  1)

1 k-point (Gamma)
1 k-point in the Irreducible Part of the Brillouin Zone

          k-points in crystal coordinates                weights
   0:     0.00000000    0.00000000    0.00000000          1/1

Mixer Type: Mixer
Linear Mixing Parameter: 0.25
Mixing with 3 Old Densities
No Damping of Long Wave Oscillations

Convergence Criteria:
    Total Energy Change: 0.0005 eV / electron
    Integral of Absolute Density Change: 0.0001 electrons
    Integral of Absolute Eigenstate Change: 4e-08 eV^2
Number of Atoms: 5
Number of Atomic Orbitals: 8
Number of Bands in Calculation: 8
Bands to Converge: Occupied States Only
Number of Valence Electrons: 8
                     log10-error:    Total        Iterations:
           Time      WFS    Density  Energy       Fermi  Poisson
iter:   1  10:31:18                 -20.228207    0      15     
iter:   2  10:31:19         -1.54   -20.207153    0      8      
iter:   3  10:31:19         -1.96   -20.203807    0      7      
iter:   4  10:31:20         -3.20   -20.204163    0      5      
iter:   5  10:31:20         -4.51   -20.204203    0      2      
------------------------------------
Converged After 5 Iterations.

Energy Contributions Relative to Reference Atoms:(reference = -1077.589146)
-------------------------
Kinetic:        -10.250312
Potential:       +0.951200
External:        +0.000000
XC:             -10.950007
Entropy (-ST):   -0.000000
Local:           +0.044916
-------------------------
Free Energy:    -20.204203
Zero Kelvin:    -20.204203

Fermi Level: -4.29876
 Band  Eigenvalues  Occupancy
    0    -18.23399    2.00000
    1    -10.81394    2.00000
    2    -10.81061    2.00000
    3    -10.80865    2.00000
    4      2.21112    0.00000
    5      3.54046    0.00000
    6      3.54547    0.00000
    7      3.55652    0.00000


Dipole Moment: [ -1.67586162e-04  -5.79411561e-05  -2.17440028e-05]

Forces in eV/Ang:
  0 C    -0.01193   -0.00303    0.00047
  1 H     0.04051   -0.00019    0.00131
  2 H    -0.01032    0.02501    0.01239
  3 H    -0.00738   -0.01239    0.01035
  4 H    -0.00866   -0.00066   -0.01469

Positions:
  0 C     4.3558    4.8471    5.0077
  1 H     5.5514    4.8472    5.0077
  2 H     3.9586    5.8489    5.5205
  3 H     3.9590    3.9032    5.6182
  4 H     3.9589    4.7907    3.8848

       .----------------------.  
      /|                      |  
     / |                      |  
    /  |                      |  
   /   |                      |  
  /    |                      |  
 *     |                      |  
 |     |      H               |  
 |     |                      |  
 |     |     H C  H           |  
 |     |      H               |  
 |     |                      |  
 |     .----------------------.  
 |    /                      /   
 |   /                      /    
 |  /                      /     
 | /                      /      
 |/                      /       
 *----------------------*        

Unit Cell:
           Periodic     X           Y           Z      Points  Spacing
  --------------------------------------------------------------------
  1. axis:    no     9.426670    0.000000    0.000000    52     0.1813
  2. axis:    no     0.000000    9.745100    0.000000    56     0.1740
  3. axis:    no     0.000000    0.000000    9.555220    52     0.1838

C-setup:
  name   : Carbon
  id     : 4aa54d4b901d75f77cc0ea3eec22967b
  Z      : 6
  valence: 4
  core   : 2
  charge : 0.0
  file   : /kemi/falco/gpaw-setups-0.9.9672/C.PBE.gz
  cutoffs: 0.64(comp), 1.14(filt), 1.14(core), lmax=2
  valence states:
            energy   radius
    2s(2.00) -13.751   0.635
    2p(2.00)  -5.284   0.635
    *s      13.461   0.635
    *p      21.927   0.635
    *d       0.000   0.635

LCAO basis set for C:
  Name: sz
  Basis set was loaded from file ./C.sz.basis
  Number of radial functions: 2
  Number of spherical harmonics: 4
    l=0, rc=5.5938 Bohr: 2s-sz confined orbital
    l=1, rc=6.8750 Bohr: 2p-sz confined orbital

H-setup:
  name   : Hydrogen
  id     : d65de229564ff8ea4db303e23b6d1ecf
  Z      : 1
  valence: 1
  core   : 0
  charge : 0.0
  file   : /kemi/falco/gpaw-setups-0.9.9672/H.PBE.gz
  cutoffs: 0.48(comp), 0.85(filt), 0.53(core), lmax=2
  valence states:
            energy   radius
    1s(1.00)  -6.494   0.476
    *s      20.717   0.476
    *p       0.000   0.476

LCAO basis set for H:
  Name: sz
  Basis set was loaded from file ./H.sz.basis
  Number of radial functions: 1
  Number of spherical harmonics: 1
    l=0, rc=6.6406 Bohr: 1s-sz confined orbital

Using the PBE Exchange-Correlation Functional.
Spin-Paired Calculation
Total Charge: 0.000000
Fermi Temperature: 0.000000
Wave functions: LCAO
    Diagonalizer: Serial LAPACK
    Atomic Correction: dense with blas
    Datatype: float
Eigensolver: LCAO using direct dense diagonalizer
XC and Coulomb potentials evaluated on a 104*112*104 grid
Interpolation: tri-quintic (5. degree polynomial)
Poisson solver: Jacobi solver with 4 multi-grid levels
    Coarsest grid: 13 x 14 x 13 points
    Stencil: 6*3+1=19 point O(h^6) finite-difference Laplacian
    Tolerance: 2.000000e-10
    Max iterations: 1000
Reference Energy: -1077.589146

Total number of cores used: 8
Domain Decomposition: 2 x 2 x 2

Symmetries present (total): 1

  ( 1  0  0)
  ( 0  1  0)
  ( 0  0  1)

1 k-point (Gamma)
1 k-point in the Irreducible Part of the Brillouin Zone

          k-points in crystal coordinates                weights
   0:     0.00000000    0.00000000    0.00000000          1/1

Mixer Type: Mixer
Linear Mixing Parameter: 0.25
Mixing with 3 Old Densities
No Damping of Long Wave Oscillations

Convergence Criteria:
    Total Energy Change: 0.0005 eV / electron
    Integral of Absolute Density Change: 0.0001 electrons
    Integral of Absolute Eigenstate Change: 4e-08 eV^2
Number of Atoms: 5
Number of Atomic Orbitals: 8
Number of Bands in Calculation: 8
Bands to Converge: Occupied States Only
Number of Valence Electrons: 8
                     log10-error:    Total        Iterations:
           Time      WFS    Density  Energy       Fermi  Poisson
iter:   1  10:31:20                 -20.204253    0      9      
iter:   2  10:31:21         -3.20   -20.204282    0      3      
iter:   3  10:31:21         -3.41   -20.204274    0      3      
iter:   4  10:31:21         -3.91   -20.204223    0      2      
iter:   5  10:31:21         -4.38   -20.204234    0      2      
------------------------------------
Converged After 5 Iterations.

Energy Contributions Relative to Reference Atoms:(reference = -1077.589146)
-------------------------
Kinetic:        -10.324362
Potential:       +1.001086
External:        +0.000000
XC:             -10.933069
Entropy (-ST):   -0.000000
Local:           +0.052111
-------------------------
Free Energy:    -20.204234
Zero Kelvin:    -20.204234

Fermi Level: -4.29765
 Band  Eigenvalues  Occupancy
    0    -18.22608    2.00000
    1    -10.81305    2.00000
    2    -10.80804    2.00000
    3    -10.79485    2.00000
    4      2.19954    0.00000
    5      3.51099    0.00000
    6      3.54326    0.00000
    7      3.55906    0.00000


Dipole Moment: [  2.20742418e-04   8.53071245e-05   8.21049008e-06]

Forces in eV/Ang:
  0 C     0.08800    0.03968    0.01531
  1 H    -0.05097   -0.00136    0.00101
  2 H    -0.00435    0.00301    0.00178
  3 H    -0.01695   -0.03011    0.02161
  4 H    -0.01603   -0.00211   -0.03008

Positions:
  0 C     4.3566    4.8473    5.0076
  1 H     5.5500    4.8472    5.0076
  2 H     3.9589    5.8483    5.5202
  3 H     3.9590    3.9030    5.6181
  4 H     3.9591    4.7907    3.8846

       .----------------------.  
      /|                      |  
     / |                      |  
    /  |                      |  
   /   |                      |  
  /    |                      |  
 *     |                      |  
 |     |      H               |  
 |     |                      |  
 |     |     H C  H           |  
 |     |      H               |  
 |     |                      |  
 |     .----------------------.  
 |    /                      /   
 |   /                      /    
 |  /                      /     
 | /                      /      
 |/                      /       
 *----------------------*        

Unit Cell:
           Periodic     X           Y           Z      Points  Spacing
  --------------------------------------------------------------------
  1. axis:    no     9.426670    0.000000    0.000000    52     0.1813
  2. axis:    no     0.000000    9.745100    0.000000    56     0.1740
  3. axis:    no     0.000000    0.000000    9.555220    52     0.1838

C-setup:
  name   : Carbon
  id     : 4aa54d4b901d75f77cc0ea3eec22967b
  Z      : 6
  valence: 4
  core   : 2
  charge : 0.0
  file   : /kemi/falco/gpaw-setups-0.9.9672/C.PBE.gz
  cutoffs: 0.64(comp), 1.14(filt), 1.14(core), lmax=2
  valence states:
            energy   radius
    2s(2.00) -13.751   0.635
    2p(2.00)  -5.284   0.635
    *s      13.461   0.635
    *p      21.927   0.635
    *d       0.000   0.635

LCAO basis set for C:
  Name: sz
  Basis set was loaded from file ./C.sz.basis
  Number of radial functions: 2
  Number of spherical harmonics: 4
    l=0, rc=5.5938 Bohr: 2s-sz confined orbital
    l=1, rc=6.8750 Bohr: 2p-sz confined orbital

H-setup:
  name   : Hydrogen
  id     : d65de229564ff8ea4db303e23b6d1ecf
  Z      : 1
  valence: 1
  core   : 0
  charge : 0.0
  file   : /kemi/falco/gpaw-setups-0.9.9672/H.PBE.gz
  cutoffs: 0.48(comp), 0.85(filt), 0.53(core), lmax=2
  valence states:
            energy   radius
    1s(1.00)  -6.494   0.476
    *s      20.717   0.476
    *p       0.000   0.476

LCAO basis set for H:
  Name: sz
  Basis set was loaded from file ./H.sz.basis
  Number of radial functions: 1
  Number of spherical harmonics: 1
    l=0, rc=6.6406 Bohr: 1s-sz confined orbital

Using the PBE Exchange-Correlation Functional.
Spin-Paired Calculation
Total Charge: 0.000000
Fermi Temperature: 0.000000
Wave functions: LCAO
    Diagonalizer: Serial LAPACK
    Atomic Correction: dense with blas
    Datatype: float
Eigensolver: LCAO using direct dense diagonalizer
XC and Coulomb potentials evaluated on a 104*112*104 grid
Interpolation: tri-quintic (5. degree polynomial)
Poisson solver: Jacobi solver with 4 multi-grid levels
    Coarsest grid: 13 x 14 x 13 points
    Stencil: 6*3+1=19 point O(h^6) finite-difference Laplacian
    Tolerance: 2.000000e-10
    Max iterations: 1000
Reference Energy: -1077.589146

Total number of cores used: 8
Domain Decomposition: 2 x 2 x 2

Symmetries present (total): 1

  ( 1  0  0)
  ( 0  1  0)
  ( 0  0  1)

1 k-point (Gamma)
1 k-point in the Irreducible Part of the Brillouin Zone

          k-points in crystal coordinates                weights
   0:     0.00000000    0.00000000    0.00000000          1/1

Mixer Type: Mixer
Linear Mixing Parameter: 0.25
Mixing with 3 Old Densities
No Damping of Long Wave Oscillations

Convergence Criteria:
    Total Energy Change: 0.0005 eV / electron
    Integral of Absolute Density Change: 0.0001 electrons
    Integral of Absolute Eigenstate Change: 4e-08 eV^2
Number of Atoms: 5
Number of Atomic Orbitals: 8
Number of Bands in Calculation: 8
Bands to Converge: Occupied States Only
Number of Valence Electrons: 8
                     log10-error:    Total        Iterations:
           Time      WFS    Density  Energy       Fermi  Poisson
iter:   1  10:31:22                 -20.204323    0      9      
iter:   2  10:31:22         -3.39   -20.204290    0      3      
iter:   3  10:31:23         -3.61   -20.204287    0      3      
iter:   4  10:31:23         -4.09   -20.204319    0      2      
------------------------------------
Converged After 4 Iterations.

Energy Contributions Relative to Reference Atoms:(reference = -1077.589146)
-------------------------
Kinetic:        -10.292342
Potential:       +0.977406
External:        +0.000000
XC:             -10.943193
Entropy (-ST):   -0.000000
Local:           +0.053810
-------------------------
Free Energy:    -20.204319
Zero Kelvin:    -20.204319

Fermi Level: -4.29980
 Band  Eigenvalues  Occupancy
    0    -18.23110    2.00000
    1    -10.81033    2.00000
    2    -10.80970    2.00000
    3    -10.80667    2.00000
    4      2.20707    0.00000
    5      3.54024    0.00000
    6      3.54380    0.00000
    7      3.54806    0.00000


Dipole Moment: [ -3.13460311e-06   3.66856847e-06  -1.03809981e-05]

Forces in eV/Ang:
  0 C     0.02965    0.01450    0.00660
  1 H     0.00585   -0.00058    0.00119
  2 H    -0.00808    0.01709    0.00857
  3 H    -0.01113   -0.01955    0.01498
  4 H    -0.01155   -0.00121   -0.02105

Positions:
  0 C     4.3579    4.8483    5.0083
  1 H     5.5519    4.8471    5.0079
  2 H     3.9581    5.8499    5.5210
  3 H     3.9583    3.9026    5.6189
  4 H     3.9582    4.7907    3.8843

       .----------------------.  
      /|                      |  
     / |                      |  
    /  |                      |  
   /   |                      |  
  /    |                      |  
 *     |                      |  
 |     |      H               |  
 |     |                      |  
 |     |     H C  H           |  
 |     |      H               |  
 |     |                      |  
 |     .----------------------.  
 |    /                      /   
 |   /                      /    
 |  /                      /     
 | /                      /      
 |/                      /       
 *----------------------*        

Unit Cell:
           Periodic     X           Y           Z      Points  Spacing
  --------------------------------------------------------------------
  1. axis:    no     9.426670    0.000000    0.000000    52     0.1813
  2. axis:    no     0.000000    9.745100    0.000000    56     0.1740
  3. axis:    no     0.000000    0.000000    9.555220    52     0.1838

C-setup:
  name   : Carbon
  id     : 4aa54d4b901d75f77cc0ea3eec22967b
  Z      : 6
  valence: 4
  core   : 2
  charge : 0.0
  file   : /kemi/falco/gpaw-setups-0.9.9672/C.PBE.gz
  cutoffs: 0.64(comp), 1.14(filt), 1.14(core), lmax=2
  valence states:
            energy   radius
    2s(2.00) -13.751   0.635
    2p(2.00)  -5.284   0.635
    *s      13.461   0.635
    *p      21.927   0.635
    *d       0.000   0.635

LCAO basis set for C:
  Name: sz
  Basis set was loaded from file ./C.sz.basis
  Number of radial functions: 2
  Number of spherical harmonics: 4
    l=0, rc=5.5938 Bohr: 2s-sz confined orbital
    l=1, rc=6.8750 Bohr: 2p-sz confined orbital

H-setup:
  name   : Hydrogen
  id     : d65de229564ff8ea4db303e23b6d1ecf
  Z      : 1
  valence: 1
  core   : 0
  charge : 0.0
  file   : /kemi/falco/gpaw-setups-0.9.9672/H.PBE.gz
  cutoffs: 0.48(comp), 0.85(filt), 0.53(core), lmax=2
  valence states:
            energy   radius
    1s(1.00)  -6.494   0.476
    *s      20.717   0.476
    *p       0.000   0.476

LCAO basis set for H:
  Name: sz
  Basis set was loaded from file ./H.sz.basis
  Number of radial functions: 1
  Number of spherical harmonics: 1
    l=0, rc=6.6406 Bohr: 1s-sz confined orbital

Using the PBE Exchange-Correlation Functional.
Spin-Paired Calculation
Total Charge: 0.000000
Fermi Temperature: 0.000000
Wave functions: LCAO
    Diagonalizer: Serial LAPACK
    Atomic Correction: dense with blas
    Datatype: float
Eigensolver: LCAO using direct dense diagonalizer
XC and Coulomb potentials evaluated on a 104*112*104 grid
Interpolation: tri-quintic (5. degree polynomial)
Poisson solver: Jacobi solver with 4 multi-grid levels
    Coarsest grid: 13 x 14 x 13 points
    Stencil: 6*3+1=19 point O(h^6) finite-difference Laplacian
    Tolerance: 2.000000e-10
    Max iterations: 1000
Reference Energy: -1077.589146

Total number of cores used: 8
Domain Decomposition: 2 x 2 x 2

Symmetries present (total): 1

  ( 1  0  0)
  ( 0  1  0)
  ( 0  0  1)

1 k-point (Gamma)
1 k-point in the Irreducible Part of the Brillouin Zone

          k-points in crystal coordinates                weights
   0:     0.00000000    0.00000000    0.00000000          1/1

Mixer Type: Mixer
Linear Mixing Parameter: 0.25
Mixing with 3 Old Densities
No Damping of Long Wave Oscillations

Convergence Criteria:
    Total Energy Change: 0.0005 eV / electron
    Integral of Absolute Density Change: 0.0001 electrons
    Integral of Absolute Eigenstate Change: 4e-08 eV^2
Number of Atoms: 5
Number of Atomic Orbitals: 8
Number of Bands in Calculation: 8
Bands to Converge: Occupied States Only
Number of Valence Electrons: 8
                     log10-error:    Total        Iterations:
           Time      WFS    Density  Energy       Fermi  Poisson
iter:   1  10:31:23                 -20.204338    0      10     
iter:   2  10:31:24         -3.20   -20.204406    0      3      
iter:   3  10:31:24         -3.52   -20.204395    0      3      
iter:   4  10:31:24         -4.07   -20.204368    0      2      
------------------------------------
Converged After 4 Iterations.

Energy Contributions Relative to Reference Atoms:(reference = -1077.589146)
-------------------------
Kinetic:        -10.391707
Potential:       +1.050006
External:        +0.000000
XC:             -10.912923
Entropy (-ST):   -0.000000
Local:           +0.050256
-------------------------
Free Energy:    -20.204368
Zero Kelvin:    -20.204368

Fermi Level: -4.30335
 Band  Eigenvalues  Occupancy
    0    -18.21632    2.00000
    1    -10.80502    2.00000
    2    -10.79768    2.00000
    3    -10.79231    2.00000
    4      2.18562    0.00000
    5      3.51472    0.00000
    6      3.52309    0.00000
    7      3.53806    0.00000


Dipole Moment: [-0.0005769  -0.00028426 -0.0001418 ]

Forces in eV/Ang:
  0 C    -0.01350   -0.00771    0.00053
  1 H    -0.01144    0.00198    0.00201
  2 H     0.00877   -0.00984   -0.00459
  3 H     0.00875    0.01887   -0.00610
  4 H     0.00830    0.00385    0.01874

Positions:
  0 C     4.3574    4.8479    5.0080
  1 H     5.5511    4.8472    5.0078
  2 H     3.9584    5.8492    5.5207
  3 H     3.9586    3.9028    5.6186
  4 H     3.9585    4.7907    3.8844

       .----------------------.  
      /|                      |  
     / |                      |  
    /  |                      |  
   /   |                      |  
  /    |                      |  
 *     |                      |  
 |     |      H               |  
 |     |                      |  
 |     |     H C  H           |  
 |     |      H               |  
 |     |                      |  
 |     .----------------------.  
 |    /                      /   
 |   /                      /    
 |  /                      /     
 | /                      /      
 |/                      /       
 *----------------------*        

Unit Cell:
           Periodic     X           Y           Z      Points  Spacing
  --------------------------------------------------------------------
  1. axis:    no     9.426670    0.000000    0.000000    52     0.1813
  2. axis:    no     0.000000    9.745100    0.000000    56     0.1740
  3. axis:    no     0.000000    0.000000    9.555220    52     0.1838

C-setup:
  name   : Carbon
  id     : 4aa54d4b901d75f77cc0ea3eec22967b
  Z      : 6
  valence: 4
  core   : 2
  charge : 0.0
  file   : /kemi/falco/gpaw-setups-0.9.9672/C.PBE.gz
  cutoffs: 0.64(comp), 1.14(filt), 1.14(core), lmax=2
  valence states:
            energy   radius
    2s(2.00) -13.751   0.635
    2p(2.00)  -5.284   0.635
    *s      13.461   0.635
    *p      21.927   0.635
    *d       0.000   0.635

LCAO basis set for C:
  Name: sz
  Basis set was loaded from file ./C.sz.basis
  Number of radial functions: 2
  Number of spherical harmonics: 4
    l=0, rc=5.5938 Bohr: 2s-sz confined orbital
    l=1, rc=6.8750 Bohr: 2p-sz confined orbital

H-setup:
  name   : Hydrogen
  id     : d65de229564ff8ea4db303e23b6d1ecf
  Z      : 1
  valence: 1
  core   : 0
  charge : 0.0
  file   : /kemi/falco/gpaw-setups-0.9.9672/H.PBE.gz
  cutoffs: 0.48(comp), 0.85(filt), 0.53(core), lmax=2
  valence states:
            energy   radius
    1s(1.00)  -6.494   0.476
    *s      20.717   0.476
    *p       0.000   0.476

LCAO basis set for H:
  Name: sz
  Basis set was loaded from file ./H.sz.basis
  Number of radial functions: 1
  Number of spherical harmonics: 1
    l=0, rc=6.6406 Bohr: 1s-sz confined orbital

Using the PBE Exchange-Correlation Functional.
Spin-Paired Calculation
Total Charge: 0.000000
Fermi Temperature: 0.000000
Wave functions: LCAO
    Diagonalizer: Serial LAPACK
    Atomic Correction: dense with blas
    Datatype: float
Eigensolver: LCAO using direct dense diagonalizer
XC and Coulomb potentials evaluated on a 104*112*104 grid
Interpolation: tri-quintic (5. degree polynomial)
Poisson solver: Jacobi solver with 4 multi-grid levels
    Coarsest grid: 13 x 14 x 13 points
    Stencil: 6*3+1=19 point O(h^6) finite-difference Laplacian
    Tolerance: 2.000000e-10
    Max iterations: 1000
Reference Energy: -1077.589146

Total number of cores used: 8
Domain Decomposition: 2 x 2 x 2

Symmetries present (total): 1

  ( 1  0  0)
  ( 0  1  0)
  ( 0  0  1)

1 k-point (Gamma)
1 k-point in the Irreducible Part of the Brillouin Zone

          k-points in crystal coordinates                weights
   0:     0.00000000    0.00000000    0.00000000          1/1

Mixer Type: Mixer
Linear Mixing Parameter: 0.25
Mixing with 3 Old Densities
No Damping of Long Wave Oscillations

Convergence Criteria:
    Total Energy Change: 0.0005 eV / electron
    Integral of Absolute Density Change: 0.0001 electrons
    Integral of Absolute Eigenstate Change: 4e-08 eV^2
Number of Atoms: 5
Number of Atomic Orbitals: 8
Number of Bands in Calculation: 8
Bands to Converge: Occupied States Only
Number of Valence Electrons: 8
                     log10-error:    Total        Iterations:
           Time      WFS    Density  Energy       Fermi  Poisson
iter:   1  10:31:25                 -20.204363    0      9      
iter:   2  10:31:25         -3.58   -20.204252    0      2      
iter:   3  10:31:25         -3.89   -20.204264    0      2      
iter:   4  10:31:25         -4.45   -20.204324    0      1      
------------------------------------
Converged After 4 Iterations.

Energy Contributions Relative to Reference Atoms:(reference = -1077.589146)
-------------------------
Kinetic:        -10.355725
Potential:       +1.022462
External:        +0.000000
XC:             -10.925057
Entropy (-ST):   -0.000000
Local:           +0.053996
-------------------------
Free Energy:    -20.204324
Zero Kelvin:    -20.204324

Fermi Level: -4.30266
 Band  Eigenvalues  Occupancy
    0    -18.22248    2.00000
    1    -10.80625    2.00000
    2    -10.80256    2.00000
    3    -10.79949    2.00000
    4      2.19418    0.00000
    5      3.52769    0.00000
    6      3.53198    0.00000
    7      3.53860    0.00000


Dipole Moment: [ -3.55036693e-04  -1.72924172e-04  -9.13262133e-05]

Forces in eV/Ang:
  0 C    -0.00080   -0.00087    0.00222
  1 H    -0.00331    0.00096    0.00165
  2 H     0.00202    0.00124    0.00082
  3 H     0.00091    0.00382    0.00225
  4 H     0.00047    0.00184    0.00301

Positions:
  0 C     4.3578    4.8482    5.0083
  1 H     5.5518    4.8471    5.0079
  2 H     3.9581    5.8498    5.5209
  3 H     3.9583    3.9026    5.6189
  4 H     3.9582    4.7907    3.8843

       .----------------------.  
      /|                      |  
     / |                      |  
    /  |                      |  
   /   |                      |  
  /    |                      |  
 *     |                      |  
 |     |      H               |  
 |     |                      |  
 |     |     H C  H           |  
 |     |      H               |  
 |     |                      |  
 |     .----------------------.  
 |    /                      /   
 |   /                      /    
 |  /                      /     
 | /                      /      
 |/                      /       
 *----------------------*        

Unit Cell:
           Periodic     X           Y           Z      Points  Spacing
  --------------------------------------------------------------------
  1. axis:    no     9.426670    0.000000    0.000000    52     0.1813
  2. axis:    no     0.000000    9.745100    0.000000    56     0.1740
  3. axis:    no     0.000000    0.000000    9.555220    52     0.1838

C-setup:
  name   : Carbon
  id     : 4aa54d4b901d75f77cc0ea3eec22967b
  Z      : 6
  valence: 4
  core   : 2
  charge : 0.0
  file   : /kemi/falco/gpaw-setups-0.9.9672/C.PBE.gz
  cutoffs: 0.64(comp), 1.14(filt), 1.14(core), lmax=2
  valence states:
            energy   radius
    2s(2.00) -13.751   0.635
    2p(2.00)  -5.284   0.635
    *s      13.461   0.635
    *p      21.927   0.635
    *d       0.000   0.635

LCAO basis set for C:
  Name: sz
  Basis set was loaded from file ./C.sz.basis
  Number of radial functions: 2
  Number of spherical harmonics: 4
    l=0, rc=5.5938 Bohr: 2s-sz confined orbital
    l=1, rc=6.8750 Bohr: 2p-sz confined orbital

H-setup:
  name   : Hydrogen
  id     : d65de229564ff8ea4db303e23b6d1ecf
  Z      : 1
  valence: 1
  core   : 0
  charge : 0.0
  file   : /kemi/falco/gpaw-setups-0.9.9672/H.PBE.gz
  cutoffs: 0.48(comp), 0.85(filt), 0.53(core), lmax=2
  valence states:
            energy   radius
    1s(1.00)  -6.494   0.476
    *s      20.717   0.476
    *p       0.000   0.476

LCAO basis set for H:
  Name: sz
  Basis set was loaded from file ./H.sz.basis
  Number of radial functions: 1
  Number of spherical harmonics: 1
    l=0, rc=6.6406 Bohr: 1s-sz confined orbital

Using the PBE Exchange-Correlation Functional.
Spin-Paired Calculation
Total Charge: 0.000000
Fermi Temperature: 0.000000
Wave functions: LCAO
    Diagonalizer: Serial LAPACK
    Atomic Correction: dense with blas
    Datatype: float
Eigensolver: LCAO using direct dense diagonalizer
XC and Coulomb potentials evaluated on a 104*112*104 grid
Interpolation: tri-quintic (5. degree polynomial)
Poisson solver: Jacobi solver with 4 multi-grid levels
    Coarsest grid: 13 x 14 x 13 points
    Stencil: 6*3+1=19 point O(h^6) finite-difference Laplacian
    Tolerance: 2.000000e-10
    Max iterations: 1000
Reference Energy: -1077.589146

Total number of cores used: 8
Domain Decomposition: 2 x 2 x 2

Symmetries present (total): 1

  ( 1  0  0)
  ( 0  1  0)
  ( 0  0  1)

1 k-point (Gamma)
1 k-point in the Irreducible Part of the Brillouin Zone

          k-points in crystal coordinates                weights
   0:     0.00000000    0.00000000    0.00000000          1/1

Mixer Type: Mixer
Linear Mixing Parameter: 0.25
Mixing with 3 Old Densities
No Damping of Long Wave Oscillations

Convergence Criteria:
    Total Energy Change: 0.0005 eV / electron
    Integral of Absolute Density Change: 0.0001 electrons
    Integral of Absolute Eigenstate Change: 4e-08 eV^2
Number of Atoms: 5
Number of Atomic Orbitals: 8
Number of Bands in Calculation: 8
Bands to Converge: Occupied States Only
Number of Valence Electrons: 8
                     log10-error:    Total        Iterations:
           Time      WFS    Density  Energy       Fermi  Poisson
iter:   1  10:31:26                 -20.204332    0      8      
iter:   2  10:31:26         -3.63   -20.204427    0      2      
iter:   3  10:31:26         -3.94   -20.204416    0      2      
iter:   4  10:31:27         -4.49   -20.204363    0      1      
------------------------------------
Converged After 4 Iterations.

Energy Contributions Relative to Reference Atoms:(reference = -1077.589146)
-------------------------
Kinetic:        -10.390002
Potential:       +1.047931
External:        +0.000000
XC:             -10.914158
Entropy (-ST):   -0.000000
Local:           +0.051866
-------------------------
Free Energy:    -20.204363
Zero Kelvin:    -20.204363

Fermi Level: -4.30329
 Band  Eigenvalues  Occupancy
    0    -18.21700    2.00000
    1    -10.80517    2.00000
    2    -10.79821    2.00000
    3    -10.79308    2.00000
    4      2.18651    0.00000
    5      3.51610    0.00000
    6      3.52401    0.00000
    7      3.53810    0.00000


Dipole Moment: [-0.00055985 -0.00027558 -0.00013789]

Forces in eV/Ang:
  0 C    -0.01319   -0.00750    0.00052
  1 H    -0.01018    0.00189    0.00197
  2 H     0.00812   -0.00857   -0.00396
  3 H     0.00804    0.01746   -0.00526
  4 H     0.00759    0.00367    0.01720

Positions:
  0 C     4.3579    4.8483    5.0083
  1 H     5.5519    4.8471    5.0079
  2 H     3.9581    5.8499    5.5210
  3 H     3.9583    3.9026    5.6189
  4 H     3.9582    4.7907    3.8843

       .----------------------.  
      /|                      |  
     / |                      |  
    /  |                      |  
   /   |                      |  
  /    |                      |  
 *     |                      |  
 |     |      H               |  
 |     |                      |  
 |     |     H C  H           |  
 |     |      H               |  
 |     |                      |  
 |     .----------------------.  
 |    /                      /   
 |   /                      /    
 |  /                      /     
 | /                      /      
 |/                      /       
 *----------------------*        

Unit Cell:
           Periodic     X           Y           Z      Points  Spacing
  --------------------------------------------------------------------
  1. axis:    no     9.426670    0.000000    0.000000    52     0.1813
  2. axis:    no     0.000000    9.745100    0.000000    56     0.1740
  3. axis:    no     0.000000    0.000000    9.555220    52     0.1838

C-setup:
  name   : Carbon
  id     : 4aa54d4b901d75f77cc0ea3eec22967b
  Z      : 6
  valence: 4
  core   : 2
  charge : 0.0
  file   : /kemi/falco/gpaw-setups-0.9.9672/C.PBE.gz
  cutoffs: 0.64(comp), 1.14(filt), 1.14(core), lmax=2
  valence states:
            energy   radius
    2s(2.00) -13.751   0.635
    2p(2.00)  -5.284   0.635
    *s      13.461   0.635
    *p      21.927   0.635
    *d       0.000   0.635

LCAO basis set for C:
  Name: sz
  Basis set was loaded from file ./C.sz.basis
  Number of radial functions: 2
  Number of spherical harmonics: 4
    l=0, rc=5.5938 Bohr: 2s-sz confined orbital
    l=1, rc=6.8750 Bohr: 2p-sz confined orbital

H-setup:
  name   : Hydrogen
  id     : d65de229564ff8ea4db303e23b6d1ecf
  Z      : 1
  valence: 1
  core   : 0
  charge : 0.0
  file   : /kemi/falco/gpaw-setups-0.9.9672/H.PBE.gz
  cutoffs: 0.48(comp), 0.85(filt), 0.53(core), lmax=2
  valence states:
            energy   radius
    1s(1.00)  -6.494   0.476
    *s      20.717   0.476
    *p       0.000   0.476

LCAO basis set for H:
  Name: sz
  Basis set was loaded from file ./H.sz.basis
  Number of radial functions: 1
  Number of spherical harmonics: 1
    l=0, rc=6.6406 Bohr: 1s-sz confined orbital

Using the PBE Exchange-Correlation Functional.
Spin-Paired Calculation
Total Charge: 0.000000
Fermi Temperature: 0.000000
Wave functions: LCAO
    Diagonalizer: Serial LAPACK
    Atomic Correction: dense with blas
    Datatype: float
Eigensolver: LCAO using direct dense diagonalizer
XC and Coulomb potentials evaluated on a 104*112*104 grid
Interpolation: tri-quintic (5. degree polynomial)
Poisson solver: Jacobi solver with 4 multi-grid levels
    Coarsest grid: 13 x 14 x 13 points
    Stencil: 6*3+1=19 point O(h^6) finite-difference Laplacian
    Tolerance: 2.000000e-10
    Max iterations: 1000
Reference Energy: -1077.589146

Total number of cores used: 8
Domain Decomposition: 2 x 2 x 2

Symmetries present (total): 1

  ( 1  0  0)
  ( 0  1  0)
  ( 0  0  1)

1 k-point (Gamma)
1 k-point in the Irreducible Part of the Brillouin Zone

          k-points in crystal coordinates                weights
   0:     0.00000000    0.00000000    0.00000000          1/1

Mixer Type: Mixer
Linear Mixing Parameter: 0.25
Mixing with 3 Old Densities
No Damping of Long Wave Oscillations

Convergence Criteria:
    Total Energy Change: 0.0005 eV / electron
    Integral of Absolute Density Change: 0.0001 electrons
    Integral of Absolute Eigenstate Change: 4e-08 eV^2
Number of Atoms: 5
Number of Atomic Orbitals: 8
Number of Bands in Calculation: 8
Bands to Converge: Occupied States Only
Number of Valence Electrons: 8
                     log10-error:    Total        Iterations:
           Time      WFS    Density  Energy       Fermi  Poisson
iter:   1  10:31:27                 -20.204333    0      6      
iter:   2  10:31:27         -4.68   -20.204379    0      1      
iter:   3  10:31:27         -5.00   -20.204383    0      1      
------------------------------------
Converged After 3 Iterations.

Energy Contributions Relative to Reference Atoms:(reference = -1077.589146)
-------------------------
Kinetic:        -10.395860
Potential:       +1.051748
External:        +0.000000
XC:             -10.912845
Entropy (-ST):   -0.000000
Local:           +0.052574
-------------------------
Free Energy:    -20.204383
Zero Kelvin:    -20.204383

Fermi Level: -4.30338
 Band  Eigenvalues  Occupancy
    0    -18.21649    2.00000
    1    -10.80524    2.00000
    2    -10.79779    2.00000
    3    -10.79235    2.00000
    4      2.18559    0.00000
    5      3.51482    0.00000
    6      3.52309    0.00000
    7      3.53788    0.00000


Dipole Moment: [-0.0005907  -0.000291   -0.00014489]

Forces in eV/Ang:
  0 C    -0.01577   -0.00881    0.00016
  1 H    -0.01067    0.00201    0.00199
  2 H     0.00880   -0.00955   -0.00442
  3 H     0.00884    0.01902   -0.00605
  4 H     0.00841    0.00388    0.01876

Positions:
  0 C     4.3579    4.8483    5.0083
  1 H     5.5519    4.8471    5.0079
  2 H     3.9581    5.8499    5.5210
  3 H     3.9583    3.9026    5.6189
  4 H     3.9582    4.7907    3.8843

       .----------------------.  
      /|                      |  
     / |                      |  
    /  |                      |  
   /   |                      |  
  /    |                      |  
 *     |                      |  
 |     |      H               |  
 |     |                      |  
 |     |     H C  H           |  
 |     |      H               |  
 |     |                      |  
 |     .----------------------.  
 |    /                      /   
 |   /                      /    
 |  /                      /     
 | /                      /      
 |/                      /       
 *----------------------*        

Unit Cell:
           Periodic     X           Y           Z      Points  Spacing
  --------------------------------------------------------------------
  1. axis:    no     9.426670    0.000000    0.000000    52     0.1813
  2. axis:    no     0.000000    9.745100    0.000000    56     0.1740
  3. axis:    no     0.000000    0.000000    9.555220    52     0.1838

C-setup:
  name   : Carbon
  id     : 4aa54d4b901d75f77cc0ea3eec22967b
  Z      : 6
  valence: 4
  core   : 2
  charge : 0.0
  file   : /kemi/falco/gpaw-setups-0.9.9672/C.PBE.gz
  cutoffs: 0.64(comp), 1.14(filt), 1.14(core), lmax=2
  valence states:
            energy   radius
    2s(2.00) -13.751   0.635
    2p(2.00)  -5.284   0.635
    *s      13.461   0.635
    *p      21.927   0.635
    *d       0.000   0.635

LCAO basis set for C:
  Name: sz
  Basis set was loaded from file ./C.sz.basis
  Number of radial functions: 2
  Number of spherical harmonics: 4
    l=0, rc=5.5938 Bohr: 2s-sz confined orbital
    l=1, rc=6.8750 Bohr: 2p-sz confined orbital

H-setup:
  name   : Hydrogen
  id     : d65de229564ff8ea4db303e23b6d1ecf
  Z      : 1
  valence: 1
  core   : 0
  charge : 0.0
  file   : /kemi/falco/gpaw-setups-0.9.9672/H.PBE.gz
  cutoffs: 0.48(comp), 0.85(filt), 0.53(core), lmax=2
  valence states:
            energy   radius
    1s(1.00)  -6.494   0.476
    *s      20.717   0.476
    *p       0.000   0.476

LCAO basis set for H:
  Name: sz
  Basis set was loaded from file ./H.sz.basis
  Number of radial functions: 1
  Number of spherical harmonics: 1
    l=0, rc=6.6406 Bohr: 1s-sz confined orbital

Using the PBE Exchange-Correlation Functional.
Spin-Paired Calculation
Total Charge: 0.000000
Fermi Temperature: 0.000000
Wave functions: LCAO
    Diagonalizer: Serial LAPACK
    Atomic Correction: dense with blas
    Datatype: float
Eigensolver: LCAO using direct dense diagonalizer
XC and Coulomb potentials evaluated on a 104*112*104 grid
Interpolation: tri-quintic (5. degree polynomial)
Poisson solver: Jacobi solver with 4 multi-grid levels
    Coarsest grid: 13 x 14 x 13 points
    Stencil: 6*3+1=19 point O(h^6) finite-difference Laplacian
    Tolerance: 2.000000e-10
    Max iterations: 1000
Reference Energy: -1077.589146

Total number of cores used: 8
Domain Decomposition: 2 x 2 x 2

Symmetries present (total): 1

  ( 1  0  0)
  ( 0  1  0)
  ( 0  0  1)

1 k-point (Gamma)
1 k-point in the Irreducible Part of the Brillouin Zone

          k-points in crystal coordinates                weights
   0:     0.00000000    0.00000000    0.00000000          1/1

Mixer Type: Mixer
Linear Mixing Parameter: 0.25
Mixing with 3 Old Densities
No Damping of Long Wave Oscillations

Convergence Criteria:
    Total Energy Change: 0.0005 eV / electron
    Integral of Absolute Density Change: 0.0001 electrons
    Integral of Absolute Eigenstate Change: 4e-08 eV^2
Number of Atoms: 5
Number of Atomic Orbitals: 8
Number of Bands in Calculation: 8
Bands to Converge: Occupied States Only
Number of Valence Electrons: 8
                     log10-error:    Total        Iterations:
           Time      WFS    Density  Energy       Fermi  Poisson
iter:   1  10:31:28                 -20.204335    0      2      
iter:   2  10:31:28         -5.87   -20.204333    0      1      
iter:   3  10:31:28         -5.99   -20.204332    0      1      
------------------------------------
Converged After 3 Iterations.

Energy Contributions Relative to Reference Atoms:(reference = -1077.589146)
-------------------------
Kinetic:        -10.396046
Potential:       +1.051751
External:        +0.000000
XC:             -10.912900
Entropy (-ST):   -0.000000
Local:           +0.052863
-------------------------
Free Energy:    -20.204332
Zero Kelvin:    -20.204332

Fermi Level: -4.30338
 Band  Eigenvalues  Occupancy
    0    -18.21651    2.00000
    1    -10.80527    2.00000
    2    -10.79781    2.00000
    3    -10.79236    2.00000
    4      2.18560    0.00000
    5      3.51487    0.00000
    6      3.52312    0.00000
    7      3.53785    0.00000


Dipole Moment: [-0.00058821 -0.00028978 -0.00014455]

Forces in eV/Ang:
  0 C    -0.01611   -0.00898    0.00008
  1 H    -0.01064    0.00201    0.00198
  2 H     0.00882   -0.00953   -0.00442
  3 H     0.00885    0.01902   -0.00605
  4 H     0.00843    0.00387    0.01875

Positions:
  0 C     4.3579    4.8483    5.0083
  1 H     5.5519    4.8471    5.0079
  2 H     3.9581    5.8499    5.5210
  3 H     3.9583    3.9026    5.6189
  4 H     3.9582    4.7907    3.8843

       .----------------------.  
      /|                      |  
     / |                      |  
    /  |                      |  
   /   |                      |  
  /    |                      |  
 *     |                      |  
 |     |      H               |  
 |     |                      |  
 |     |     H C  H           |  
 |     |      H               |  
 |     |                      |  
 |     .----------------------.  
 |    /                      /   
 |   /                      /    
 |  /                      /     
 | /                      /      
 |/                      /       
 *----------------------*        

Unit Cell:
           Periodic     X           Y           Z      Points  Spacing
  --------------------------------------------------------------------
  1. axis:    no     9.426670    0.000000    0.000000    52     0.1813
  2. axis:    no     0.000000    9.745100    0.000000    56     0.1740
  3. axis:    no     0.000000    0.000000    9.555220    52     0.1838

C-setup:
  name   : Carbon
  id     : 4aa54d4b901d75f77cc0ea3eec22967b
  Z      : 6
  valence: 4
  core   : 2
  charge : 0.0
  file   : /kemi/falco/gpaw-setups-0.9.9672/C.PBE.gz
  cutoffs: 0.64(comp), 1.14(filt), 1.14(core), lmax=2
  valence states:
            energy   radius
    2s(2.00) -13.751   0.635
    2p(2.00)  -5.284   0.635
    *s      13.461   0.635
    *p      21.927   0.635
    *d       0.000   0.635

LCAO basis set for C:
  Name: sz
  Basis set was loaded from file ./C.sz.basis
  Number of radial functions: 2
  Number of spherical harmonics: 4
    l=0, rc=5.5938 Bohr: 2s-sz confined orbital
    l=1, rc=6.8750 Bohr: 2p-sz confined orbital

H-setup:
  name   : Hydrogen
  id     : d65de229564ff8ea4db303e23b6d1ecf
  Z      : 1
  valence: 1
  core   : 0
  charge : 0.0
  file   : /kemi/falco/gpaw-setups-0.9.9672/H.PBE.gz
  cutoffs: 0.48(comp), 0.85(filt), 0.53(core), lmax=2
  valence states:
            energy   radius
    1s(1.00)  -6.494   0.476
    *s      20.717   0.476
    *p       0.000   0.476

LCAO basis set for H:
  Name: sz
  Basis set was loaded from file ./H.sz.basis
  Number of radial functions: 1
  Number of spherical harmonics: 1
    l=0, rc=6.6406 Bohr: 1s-sz confined orbital

Using the PBE Exchange-Correlation Functional.
Spin-Paired Calculation
Total Charge: 0.000000
Fermi Temperature: 0.000000
Wave functions: LCAO
    Diagonalizer: Serial LAPACK
    Atomic Correction: dense with blas
    Datatype: float
Eigensolver: LCAO using direct dense diagonalizer
XC and Coulomb potentials evaluated on a 104*112*104 grid
Interpolation: tri-quintic (5. degree polynomial)
Poisson solver: Jacobi solver with 4 multi-grid levels
    Coarsest grid: 13 x 14 x 13 points
    Stencil: 6*3+1=19 point O(h^6) finite-difference Laplacian
    Tolerance: 2.000000e-10
    Max iterations: 1000
Reference Energy: -1077.589146

Total number of cores used: 8
Domain Decomposition: 2 x 2 x 2

Symmetries present (total): 1

  ( 1  0  0)
  ( 0  1  0)
  ( 0  0  1)

1 k-point (Gamma)
1 k-point in the Irreducible Part of the Brillouin Zone

          k-points in crystal coordinates                weights
   0:     0.00000000    0.00000000    0.00000000          1/1

Mixer Type: Mixer
Linear Mixing Parameter: 0.25
Mixing with 3 Old Densities
No Damping of Long Wave Oscillations

Convergence Criteria:
    Total Energy Change: 0.0005 eV / electron
    Integral of Absolute Density Change: 0.0001 electrons
    Integral of Absolute Eigenstate Change: 4e-08 eV^2
Number of Atoms: 5
Number of Atomic Orbitals: 8
Number of Bands in Calculation: 8
Bands to Converge: Occupied States Only
Number of Valence Electrons: 8
                     log10-error:    Total        Iterations:
           Time      WFS    Density  Energy       Fermi  Poisson
iter:   1  10:31:28                 -20.204333    0      2      
iter:   2  10:31:29         -6.25   -20.204333    0      1      
iter:   3  10:31:29         -6.46   -20.204333    0      1      
------------------------------------
Converged After 3 Iterations.

Energy Contributions Relative to Reference Atoms:(reference = -1077.589146)
-------------------------
Kinetic:        -10.396173
Potential:       +1.051847
External:        +0.000000
XC:             -10.912862
Entropy (-ST):   -0.000000
Local:           +0.052854
-------------------------
Free Energy:    -20.204333
Zero Kelvin:    -20.204333

Fermi Level: -4.30339
 Band  Eigenvalues  Occupancy
    0    -18.21650    2.00000
    1    -10.80527    2.00000
    2    -10.79780    2.00000
    3    -10.79235    2.00000
    4      2.18557    0.00000
    5      3.51483    0.00000
    6      3.52309    0.00000
    7      3.53784    0.00000


Dipole Moment: [-0.00058791 -0.00028962 -0.00014451]

Forces in eV/Ang:
  0 C    -0.01606   -0.00895    0.00012
  1 H    -0.01063    0.00201    0.00199
  2 H     0.00882   -0.00954   -0.00442
  3 H     0.00886    0.01905   -0.00606
  4 H     0.00843    0.00388    0.01878

Positions:
  0 C     4.3579    4.8483    5.0083
  1 H     5.5519    4.8471    5.0079
  2 H     3.9581    5.8499    5.5210
  3 H     3.9583    3.9026    5.6189
  4 H     3.9582    4.7907    3.8843

       .----------------------.  
      /|                      |  
     / |                      |  
    /  |                      |  
   /   |                      |  
  /    |                      |  
 *     |                      |  
 |     |      H               |  
 |     |                      |  
 |     |     H C  H           |  
 |     |      H               |  
 |     |                      |  
 |     .----------------------.  
 |    /                      /   
 |   /                      /    
 |  /                      /     
 | /                      /      
 |/                      /       
 *----------------------*        

Unit Cell:
           Periodic     X           Y           Z      Points  Spacing
  --------------------------------------------------------------------
  1. axis:    no     9.426670    0.000000    0.000000    52     0.1813
  2. axis:    no     0.000000    9.745100    0.000000    56     0.1740
  3. axis:    no     0.000000    0.000000    9.555220    52     0.1838

C-setup:
  name   : Carbon
  id     : 4aa54d4b901d75f77cc0ea3eec22967b
  Z      : 6
  valence: 4
  core   : 2
  charge : 0.0
  file   : /kemi/falco/gpaw-setups-0.9.9672/C.PBE.gz
  cutoffs: 0.64(comp), 1.14(filt), 1.14(core), lmax=2
  valence states:
            energy   radius
    2s(2.00) -13.751   0.635
    2p(2.00)  -5.284   0.635
    *s      13.461   0.635
    *p      21.927   0.635
    *d       0.000   0.635

LCAO basis set for C:
  Name: sz
  Basis set was loaded from file ./C.sz.basis
  Number of radial functions: 2
  Number of spherical harmonics: 4
    l=0, rc=5.5938 Bohr: 2s-sz confined orbital
    l=1, rc=6.8750 Bohr: 2p-sz confined orbital

H-setup:
  name   : Hydrogen
  id     : d65de229564ff8ea4db303e23b6d1ecf
  Z      : 1
  valence: 1
  core   : 0
  charge : 0.0
  file   : /kemi/falco/gpaw-setups-0.9.9672/H.PBE.gz
  cutoffs: 0.48(comp), 0.85(filt), 0.53(core), lmax=2
  valence states:
            energy   radius
    1s(1.00)  -6.494   0.476
    *s      20.717   0.476
    *p       0.000   0.476

LCAO basis set for H:
  Name: sz
  Basis set was loaded from file ./H.sz.basis
  Number of radial functions: 1
  Number of spherical harmonics: 1
    l=0, rc=6.6406 Bohr: 1s-sz confined orbital

Using the PBE Exchange-Correlation Functional.
Spin-Paired Calculation
Total Charge: 0.000000
Fermi Temperature: 0.000000
Wave functions: LCAO
    Diagonalizer: Serial LAPACK
    Atomic Correction: dense with blas
    Datatype: float
Eigensolver: LCAO using direct dense diagonalizer
XC and Coulomb potentials evaluated on a 104*112*104 grid
Interpolation: tri-quintic (5. degree polynomial)
Poisson solver: Jacobi solver with 4 multi-grid levels
    Coarsest grid: 13 x 14 x 13 points
    Stencil: 6*3+1=19 point O(h^6) finite-difference Laplacian
    Tolerance: 2.000000e-10
    Max iterations: 1000
Reference Energy: -1077.589146

Total number of cores used: 8
Domain Decomposition: 2 x 2 x 2

Symmetries present (total): 1

  ( 1  0  0)
  ( 0  1  0)
  ( 0  0  1)

1 k-point (Gamma)
1 k-point in the Irreducible Part of the Brillouin Zone

          k-points in crystal coordinates                weights
   0:     0.00000000    0.00000000    0.00000000          1/1

Mixer Type: Mixer
Linear Mixing Parameter: 0.25
Mixing with 3 Old Densities
No Damping of Long Wave Oscillations

Convergence Criteria:
    Total Energy Change: 0.0005 eV / electron
    Integral of Absolute Density Change: 0.0001 electrons
    Integral of Absolute Eigenstate Change: 4e-08 eV^2
Number of Atoms: 5
Number of Atomic Orbitals: 8
Number of Bands in Calculation: 8
Bands to Converge: Occupied States Only
Number of Valence Electrons: 8
                     log10-error:    Total        Iterations:
           Time      WFS    Density  Energy       Fermi  Poisson
iter:   1  10:31:29                 -20.204332    0      1      
iter:   2  10:31:29         -7.30   -20.204332    0      1      
iter:   3  10:31:30         -7.31   -20.204332    0      1      
------------------------------------
Converged After 3 Iterations.

Energy Contributions Relative to Reference Atoms:(reference = -1077.589146)
-------------------------
Kinetic:        -10.396181
Potential:       +1.051850
External:        +0.000000
XC:             -10.912862
Entropy (-ST):   -0.000000
Local:           +0.052862
-------------------------
Free Energy:    -20.204332
Zero Kelvin:    -20.204332

Fermi Level: -4.30339
 Band  Eigenvalues  Occupancy
    0    -18.21650    2.00000
    1    -10.80528    2.00000
    2    -10.79780    2.00000
    3    -10.79235    2.00000
    4      2.18557    0.00000
    5      3.51483    0.00000
    6      3.52308    0.00000
    7      3.53784    0.00000


Dipole Moment: [-0.00058762 -0.00028948 -0.00014445]

Forces in eV/Ang:
  0 C    -0.01611   -0.00898    0.00010
  1 H    -0.01065    0.00202    0.00198
  2 H     0.00883   -0.00955   -0.00443
  3 H     0.00887    0.01906   -0.00606
  4 H     0.00844    0.00388    0.01879

Positions:
  0 C     4.3579    4.8483    5.0083
  1 H     5.5519    4.8471    5.0079
  2 H     3.9581    5.8499    5.5210
  3 H     3.9583    3.9026    5.6189
  4 H     3.9582    4.7907    3.8843

       .----------------------.  
      /|                      |  
     / |                      |  
    /  |                      |  
   /   |                      |  
  /    |                      |  
 *     |                      |  
 |     |      H               |  
 |     |                      |  
 |     |     H C  H           |  
 |     |      H               |  
 |     |                      |  
 |     .----------------------.  
 |    /                      /   
 |   /                      /    
 |  /                      /     
 | /                      /      
 |/                      /       
 *----------------------*        

Unit Cell:
           Periodic     X           Y           Z      Points  Spacing
  --------------------------------------------------------------------
  1. axis:    no     9.426670    0.000000    0.000000    52     0.1813
  2. axis:    no     0.000000    9.745100    0.000000    56     0.1740
  3. axis:    no     0.000000    0.000000    9.555220    52     0.1838

C-setup:
  name   : Carbon
  id     : 4aa54d4b901d75f77cc0ea3eec22967b
  Z      : 6
  valence: 4
  core   : 2
  charge : 0.0
  file   : /kemi/falco/gpaw-setups-0.9.9672/C.PBE.gz
  cutoffs: 0.64(comp), 1.14(filt), 1.14(core), lmax=2
  valence states:
            energy   radius
    2s(2.00) -13.751   0.635
    2p(2.00)  -5.284   0.635
    *s      13.461   0.635
    *p      21.927   0.635
    *d       0.000   0.635

LCAO basis set for C:
  Name: sz
  Basis set was loaded from file ./C.sz.basis
  Number of radial functions: 2
  Number of spherical harmonics: 4
    l=0, rc=5.5938 Bohr: 2s-sz confined orbital
    l=1, rc=6.8750 Bohr: 2p-sz confined orbital

H-setup:
  name   : Hydrogen
  id     : d65de229564ff8ea4db303e23b6d1ecf
  Z      : 1
  valence: 1
  core   : 0
  charge : 0.0
  file   : /kemi/falco/gpaw-setups-0.9.9672/H.PBE.gz
  cutoffs: 0.48(comp), 0.85(filt), 0.53(core), lmax=2
  valence states:
            energy   radius
    1s(1.00)  -6.494   0.476
    *s      20.717   0.476
    *p       0.000   0.476

LCAO basis set for H:
  Name: sz
  Basis set was loaded from file ./H.sz.basis
  Number of radial functions: 1
  Number of spherical harmonics: 1
    l=0, rc=6.6406 Bohr: 1s-sz confined orbital

Using the PBE Exchange-Correlation Functional.
Spin-Paired Calculation
Total Charge: 0.000000
Fermi Temperature: 0.000000
Wave functions: LCAO
    Diagonalizer: Serial LAPACK
    Atomic Correction: dense with blas
    Datatype: float
Eigensolver: LCAO using direct dense diagonalizer
XC and Coulomb potentials evaluated on a 104*112*104 grid
Interpolation: tri-quintic (5. degree polynomial)
Poisson solver: Jacobi solver with 4 multi-grid levels
    Coarsest grid: 13 x 14 x 13 points
    Stencil: 6*3+1=19 point O(h^6) finite-difference Laplacian
    Tolerance: 2.000000e-10
    Max iterations: 1000
Reference Energy: -1077.589146

Total number of cores used: 8
Domain Decomposition: 2 x 2 x 2

Symmetries present (total): 1

  ( 1  0  0)
  ( 0  1  0)
  ( 0  0  1)

1 k-point (Gamma)
1 k-point in the Irreducible Part of the Brillouin Zone

          k-points in crystal coordinates                weights
   0:     0.00000000    0.00000000    0.00000000          1/1

Mixer Type: Mixer
Linear Mixing Parameter: 0.25
Mixing with 3 Old Densities
No Damping of Long Wave Oscillations

Convergence Criteria:
    Total Energy Change: 0.0005 eV / electron
    Integral of Absolute Density Change: 0.0001 electrons
    Integral of Absolute Eigenstate Change: 4e-08 eV^2
Number of Atoms: 5
Number of Atomic Orbitals: 8
Number of Bands in Calculation: 8
Bands to Converge: Occupied States Only
Number of Valence Electrons: 8
                     log10-error:    Total        Iterations:
           Time      WFS    Density  Energy       Fermi  Poisson
iter:   1  10:31:30                 -20.204332    0      1      
iter:   2  10:31:30         -8.15   -20.204332    0      1      
iter:   3  10:31:30         -8.25   -20.204332    0      1      
------------------------------------
Converged After 3 Iterations.

Energy Contributions Relative to Reference Atoms:(reference = -1077.589146)
-------------------------
Kinetic:        -10.396181
Potential:       +1.051849
External:        +0.000000
XC:             -10.912862
Entropy (-ST):   -0.000000
Local:           +0.052862
-------------------------
Free Energy:    -20.204332
Zero Kelvin:    -20.204332

Fermi Level: -4.30339
 Band  Eigenvalues  Occupancy
    0    -18.21650    2.00000
    1    -10.80528    2.00000
    2    -10.79780    2.00000
    3    -10.79235    2.00000
    4      2.18557    0.00000
    5      3.51483    0.00000
    6      3.52308    0.00000
    7      3.53784    0.00000


Dipole Moment: [-0.00058767 -0.0002895  -0.00014446]

Forces in eV/Ang:
  0 C    -0.01611   -0.00898    0.00009
  1 H    -0.01065    0.00202    0.00198
  2 H     0.00883   -0.00955   -0.00443
  3 H     0.00887    0.01906   -0.00606
  4 H     0.00844    0.00388    0.01879

Positions:
  0 C     4.3574    4.8479    5.0083
  1 H     5.5510    4.8473    5.0079
  2 H     3.9586    5.8495    5.5208
  3 H     3.9586    3.9030    5.6189
  4 H     3.9585    4.7908    3.8846

       .----------------------.  
      /|                      |  
     / |                      |  
    /  |                      |  
   /   |                      |  
  /    |                      |  
 *     |                      |  
 |     |      H               |  
 |     |                      |  
 |     |     H C  H           |  
 |     |      H               |  
 |     |                      |  
 |     .----------------------.  
 |    /                      /   
 |   /                      /    
 |  /                      /     
 | /                      /      
 |/                      /       
 *----------------------*        

Unit Cell:
           Periodic     X           Y           Z      Points  Spacing
  --------------------------------------------------------------------
  1. axis:    no     9.426670    0.000000    0.000000    52     0.1813
  2. axis:    no     0.000000    9.745100    0.000000    56     0.1740
  3. axis:    no     0.000000    0.000000    9.555220    52     0.1838

C-setup:
  name   : Carbon
  id     : 4aa54d4b901d75f77cc0ea3eec22967b
  Z      : 6
  valence: 4
  core   : 2
  charge : 0.0
  file   : /kemi/falco/gpaw-setups-0.9.9672/C.PBE.gz
  cutoffs: 0.64(comp), 1.14(filt), 1.14(core), lmax=2
  valence states:
            energy   radius
    2s(2.00) -13.751   0.635
    2p(2.00)  -5.284   0.635
    *s      13.461   0.635
    *p      21.927   0.635
    *d       0.000   0.635

LCAO basis set for C:
  Name: sz
  Basis set was loaded from file ./C.sz.basis
  Number of radial functions: 2
  Number of spherical harmonics: 4
    l=0, rc=5.5938 Bohr: 2s-sz confined orbital
    l=1, rc=6.8750 Bohr: 2p-sz confined orbital

H-setup:
  name   : Hydrogen
  id     : d65de229564ff8ea4db303e23b6d1ecf
  Z      : 1
  valence: 1
  core   : 0
  charge : 0.0
  file   : /kemi/falco/gpaw-setups-0.9.9672/H.PBE.gz
  cutoffs: 0.48(comp), 0.85(filt), 0.53(core), lmax=2
  valence states:
            energy   radius
    1s(1.00)  -6.494   0.476
    *s      20.717   0.476
    *p       0.000   0.476

LCAO basis set for H:
  Name: sz
  Basis set was loaded from file ./H.sz.basis
  Number of radial functions: 1
  Number of spherical harmonics: 1
    l=0, rc=6.6406 Bohr: 1s-sz confined orbital

Using the PBE Exchange-Correlation Functional.
Spin-Paired Calculation
Total Charge: 0.000000
Fermi Temperature: 0.000000
Wave functions: LCAO
    Diagonalizer: Serial LAPACK
    Atomic Correction: dense with blas
    Datatype: float
Eigensolver: LCAO using direct dense diagonalizer
XC and Coulomb potentials evaluated on a 104*112*104 grid
Interpolation: tri-quintic (5. degree polynomial)
Poisson solver: Jacobi solver with 4 multi-grid levels
    Coarsest grid: 13 x 14 x 13 points
    Stencil: 6*3+1=19 point O(h^6) finite-difference Laplacian
    Tolerance: 2.000000e-10
    Max iterations: 1000
Reference Energy: -1077.589146

Total number of cores used: 8
Domain Decomposition: 2 x 2 x 2

Symmetries present (total): 1

  ( 1  0  0)
  ( 0  1  0)
  ( 0  0  1)

1 k-point (Gamma)
1 k-point in the Irreducible Part of the Brillouin Zone

          k-points in crystal coordinates                weights
   0:     0.00000000    0.00000000    0.00000000          1/1

Mixer Type: Mixer
Linear Mixing Parameter: 0.25
Mixing with 3 Old Densities
No Damping of Long Wave Oscillations

Convergence Criteria:
    Total Energy Change: 0.0005 eV / electron
    Integral of Absolute Density Change: 0.0001 electrons
    Integral of Absolute Eigenstate Change: 4e-08 eV^2
Number of Atoms: 5
Number of Atomic Orbitals: 8
Number of Bands in Calculation: 8
Bands to Converge: Occupied States Only
Number of Valence Electrons: 8
                     log10-error:    Total        Iterations:
           Time      WFS    Density  Energy       Fermi  Poisson
iter:   1  10:31:31                 -20.204365    0      9      
iter:   2  10:31:31         -3.60   -20.204253    0      2      
iter:   3  10:31:31         -3.91   -20.204266    0      2      
iter:   4  10:31:32         -4.40   -20.204326    0      1      
------------------------------------
Converged After 4 Iterations.

Energy Contributions Relative to Reference Atoms:(reference = -1077.589146)
-------------------------
Kinetic:        -10.354189
Potential:       +1.021364
External:        +0.000000
XC:             -10.925501
Entropy (-ST):   -0.000000
Local:           +0.054000
-------------------------
Free Energy:    -20.204326
Zero Kelvin:    -20.204326

Fermi Level: -4.30263
 Band  Eigenvalues  Occupancy
    0    -18.22270    2.00000
    1    -10.80655    2.00000
    2    -10.80244    2.00000
    3    -10.79977    2.00000
    4      2.19450    0.00000
    5      3.52881    0.00000
    6      3.53006    0.00000
    7      3.54023    0.00000


Dipole Moment: [-0.00036336 -0.00010147 -0.00010643]

Forces in eV/Ang:
  0 C    -0.00569    0.00786   -0.00042
  1 H     0.00131    0.00053    0.00175
  2 H     0.00356   -0.00321   -0.00087
  3 H    -0.00066   -0.00032    0.00443
  4 H     0.00122    0.00121    0.00550

Positions:
  0 C     4.3578    4.8481    5.0083
  1 H     5.5517    4.8472    5.0079
  2 H     3.9582    5.8498    5.5209
  3 H     3.9584    3.9027    5.6189
  4 H     3.9582    4.7907    3.8844

       .----------------------.  
      /|                      |  
     / |                      |  
    /  |                      |  
   /   |                      |  
  /    |                      |  
 *     |                      |  
 |     |      H               |  
 |     |                      |  
 |     |     H C  H           |  
 |     |      H               |  
 |     |                      |  
 |     .----------------------.  
 |    /                      /   
 |   /                      /    
 |  /                      /     
 | /                      /      
 |/                      /       
 *----------------------*        

Unit Cell:
           Periodic     X           Y           Z      Points  Spacing
  --------------------------------------------------------------------
  1. axis:    no     9.426670    0.000000    0.000000    52     0.1813
  2. axis:    no     0.000000    9.745100    0.000000    56     0.1740
  3. axis:    no     0.000000    0.000000    9.555220    52     0.1838

C-setup:
  name   : Carbon
  id     : 4aa54d4b901d75f77cc0ea3eec22967b
  Z      : 6
  valence: 4
  core   : 2
  charge : 0.0
  file   : /kemi/falco/gpaw-setups-0.9.9672/C.PBE.gz
  cutoffs: 0.64(comp), 1.14(filt), 1.14(core), lmax=2
  valence states:
            energy   radius
    2s(2.00) -13.751   0.635
    2p(2.00)  -5.284   0.635
    *s      13.461   0.635
    *p      21.927   0.635
    *d       0.000   0.635

LCAO basis set for C:
  Name: sz
  Basis set was loaded from file ./C.sz.basis
  Number of radial functions: 2
  Number of spherical harmonics: 4
    l=0, rc=5.5938 Bohr: 2s-sz confined orbital
    l=1, rc=6.8750 Bohr: 2p-sz confined orbital

H-setup:
  name   : Hydrogen
  id     : d65de229564ff8ea4db303e23b6d1ecf
  Z      : 1
  valence: 1
  core   : 0
  charge : 0.0
  file   : /kemi/falco/gpaw-setups-0.9.9672/H.PBE.gz
  cutoffs: 0.48(comp), 0.85(filt), 0.53(core), lmax=2
  valence states:
            energy   radius
    1s(1.00)  -6.494   0.476
    *s      20.717   0.476
    *p       0.000   0.476

LCAO basis set for H:
  Name: sz
  Basis set was loaded from file ./H.sz.basis
  Number of radial functions: 1
  Number of spherical harmonics: 1
    l=0, rc=6.6406 Bohr: 1s-sz confined orbital

Using the PBE Exchange-Correlation Functional.
Spin-Paired Calculation
Total Charge: 0.000000
Fermi Temperature: 0.000000
Wave functions: LCAO
    Diagonalizer: Serial LAPACK
    Atomic Correction: dense with blas
    Datatype: float
Eigensolver: LCAO using direct dense diagonalizer
XC and Coulomb potentials evaluated on a 104*112*104 grid
Interpolation: tri-quintic (5. degree polynomial)
Poisson solver: Jacobi solver with 4 multi-grid levels
    Coarsest grid: 13 x 14 x 13 points
    Stencil: 6*3+1=19 point O(h^6) finite-difference Laplacian
    Tolerance: 2.000000e-10
    Max iterations: 1000
Reference Energy: -1077.589146

Total number of cores used: 8
Domain Decomposition: 2 x 2 x 2

Symmetries present (total): 1

  ( 1  0  0)
  ( 0  1  0)
  ( 0  0  1)

1 k-point (Gamma)
1 k-point in the Irreducible Part of the Brillouin Zone

          k-points in crystal coordinates                weights
   0:     0.00000000    0.00000000    0.00000000          1/1

Mixer Type: Mixer
Linear Mixing Parameter: 0.25
Mixing with 3 Old Densities
No Damping of Long Wave Oscillations

Convergence Criteria:
    Total Energy Change: 0.0005 eV / electron
    Integral of Absolute Density Change: 0.0001 electrons
    Integral of Absolute Eigenstate Change: 4e-08 eV^2
Number of Atoms: 5
Number of Atomic Orbitals: 8
Number of Bands in Calculation: 8
Bands to Converge: Occupied States Only
Number of Valence Electrons: 8
                     log10-error:    Total        Iterations:
           Time      WFS    Density  Energy       Fermi  Poisson
iter:   1  10:31:32                 -20.204339    0      8      
iter:   2  10:31:32         -3.72   -20.204421    0      2      
iter:   3  10:31:33         -4.03   -20.204411    0      2      
------------------------------------
Converged After 3 Iterations.

Energy Contributions Relative to Reference Atoms:(reference = -1077.589146)
-------------------------
Kinetic:        -10.380772
Potential:       +1.042116
External:        +0.000000
XC:             -10.916252
Entropy (-ST):   -0.000000
Local:           +0.050498
-------------------------
Free Energy:    -20.204411
Zero Kelvin:    -20.204411

Fermi Level: -4.30329
 Band  Eigenvalues  Occupancy
    0    -18.21806    2.00000
    1    -10.80530    2.00000
    2    -10.79887    2.00000
    3    -10.79458    2.00000
    4      2.18800    0.00000
    5      3.51862    0.00000
    6      3.52478    0.00000
    7      3.53864    0.00000


Dipole Moment: [-0.00058265 -0.00032598 -0.00013246]

Forces in eV/Ang:
  0 C    -0.01214   -0.00188   -0.00028
  1 H    -0.00746    0.00164    0.00191
  2 H     0.00740   -0.00793   -0.00362
  3 H     0.00619    0.01384   -0.00330
  4 H     0.00641    0.00320    0.01534

Positions:
  0 C     4.3578    4.8481    5.0083
  1 H     5.5516    4.8472    5.0079
  2 H     3.9582    5.8498    5.5209
  3 H     3.9584    3.9027    5.6189
  4 H     3.9583    4.7907    3.8844

       .----------------------.  
      /|                      |  
     / |                      |  
    /  |                      |  
   /   |                      |  
  /    |                      |  
 *     |                      |  
 |     |      H               |  
[...]
  Z      : 6
  valence: 4
  core   : 2
  charge : 0.0
  file   : /kemi/falco/gpaw-setups-0.9.9672/C.PBE.gz
  cutoffs: 0.64(comp), 1.14(filt), 1.14(core), lmax=2
  valence states:
            energy   radius
    2s(2.00) -13.751   0.635
    2p(2.00)  -5.284   0.635
    *s      13.461   0.635
    *p      21.927   0.635
    *d       0.000   0.635

LCAO basis set for C:
  Name: sz
  Basis set was loaded from file ./C.sz.basis
  Number of radial functions: 2
  Number of spherical harmonics: 4
    l=0, rc=5.5938 Bohr: 2s-sz confined orbital
    l=1, rc=6.8750 Bohr: 2p-sz confined orbital

H-setup:
  name   : Hydrogen
  id     : d65de229564ff8ea4db303e23b6d1ecf
  Z      : 1
  valence: 1
  core   : 0
  charge : 0.0
  file   : /kemi/falco/gpaw-setups-0.9.9672/H.PBE.gz
  cutoffs: 0.48(comp), 0.85(filt), 0.53(core), lmax=2
  valence states:
            energy   radius
    1s(1.00)  -6.494   0.476
    *s      20.717   0.476
    *p       0.000   0.476

LCAO basis set for H:
  Name: sz
  Basis set was loaded from file ./H.sz.basis
  Number of radial functions: 1
  Number of spherical harmonics: 1
    l=0, rc=6.6406 Bohr: 1s-sz confined orbital

Using the PBE Exchange-Correlation Functional.
Spin-Paired Calculation
Total Charge: 0.000000
Fermi Temperature: 0.000000
Wave functions: LCAO
    Diagonalizer: Serial LAPACK
    Atomic Correction: dense with blas
    Datatype: float
Eigensolver: LCAO using direct dense diagonalizer
XC and Coulomb potentials evaluated on a 104*112*104 grid
Interpolation: tri-quintic (5. degree polynomial)
Poisson solver: Jacobi solver with 4 multi-grid levels
    Coarsest grid: 13 x 14 x 13 points
    Stencil: 6*3+1=19 point O(h^6) finite-difference Laplacian
    Tolerance: 2.000000e-10
    Max iterations: 1000
Reference Energy: -1077.589146

Total number of cores used: 8
Domain Decomposition: 2 x 2 x 2

Symmetries present (total): 1

  ( 1  0  0)
  ( 0  1  0)
  ( 0  0  1)

1 k-point (Gamma)
1 k-point in the Irreducible Part of the Brillouin Zone

          k-points in crystal coordinates                weights
   0:     0.00000000    0.00000000    0.00000000          1/1

Mixer Type: Mixer
Linear Mixing Parameter: 0.25
Mixing with 3 Old Densities
No Damping of Long Wave Oscillations

Convergence Criteria:
    Total Energy Change: 0.0005 eV / electron
    Integral of Absolute Density Change: 0.0001 electrons
    Integral of Absolute Eigenstate Change: 4e-08 eV^2
Number of Atoms: 5
Number of Atomic Orbitals: 8
Number of Bands in Calculation: 8
Bands to Converge: Occupied States Only
Number of Valence Electrons: 8
                     log10-error:    Total        Iterations:
           Time      WFS    Density  Energy       Fermi  Poisson
iter:   1  10:31:34                 -20.204343    0      1      
iter:   2  10:31:35         -6.58   -20.204344    0      1      
iter:   3  10:31:35         -6.58   -20.204344    0      1      
------------------------------------
Converged After 3 Iterations.

Energy Contributions Relative to Reference Atoms:(reference = -1077.589146)
-------------------------
Kinetic:        -10.384591
Potential:       +1.043582
External:        +0.000000
XC:             -10.916203
Entropy (-ST):   -0.000000
Local:           +0.052869
-------------------------
Free Energy:    -20.204344
Zero Kelvin:    -20.204344

Fermi Level: -4.30323
 Band  Eigenvalues  Occupancy
    0    -18.21810    2.00000
    1    -10.80555    2.00000
    2    -10.79891    2.00000
    3    -10.79440    2.00000
    4      2.18794    0.00000
    5      3.51880    0.00000
    6      3.52471    0.00000
    7      3.53844    0.00000


Dipole Moment: [-0.0005269  -0.00023852 -0.00013415]

Forces in eV/Ang:
  0 C    -0.01313   -0.00415   -0.00005
  1 H    -0.00756    0.00162    0.00192
  2 H     0.00745   -0.00794   -0.00353
  3 H     0.00633    0.01394   -0.00330
  4 H     0.00652    0.00318    0.01531

Positions:
  0 C     4.3578    4.8481    5.0083
  1 H     5.5517    4.8472    5.0079
  2 H     3.9582    5.8498    5.5209
  3 H     3.9584    3.9027    5.6189
  4 H     3.9582    4.7907    3.8844

       .----------------------.  
      /|                      |  
     / |                      |  
    /  |                      |  
   /   |                      |  
  /    |                      |  
 *     |                      |  
 |     |      H               |  
 |     |                      |  
 |     |     H C  H           |  
 |     |      H               |  
 |     |                      |  
 |     .----------------------.  
 |    /                      /   
 |   /                      /    
 |  /                      /     
 | /                      /      
 |/                      /       
 *----------------------*        

Unit Cell:
           Periodic     X           Y           Z      Points  Spacing
  --------------------------------------------------------------------
  1. axis:    no     9.426670    0.000000    0.000000    52     0.1813
  2. axis:    no     0.000000    9.745100    0.000000    56     0.1740
  3. axis:    no     0.000000    0.000000    9.555220    52     0.1838

C-setup:
  name   : Carbon
  id     : 4aa54d4b901d75f77cc0ea3eec22967b
  Z      : 6
  valence: 4
  core   : 2
  charge : 0.0
  file   : /kemi/falco/gpaw-setups-0.9.9672/C.PBE.gz
  cutoffs: 0.64(comp), 1.14(filt), 1.14(core), lmax=2
  valence states:
            energy   radius
    2s(2.00) -13.751   0.635
    2p(2.00)  -5.284   0.635
    *s      13.461   0.635
    *p      21.927   0.635
    *d       0.000   0.635

LCAO basis set for C:
  Name: sz
  Basis set was loaded from file ./C.sz.basis
  Number of radial functions: 2
  Number of spherical harmonics: 4
    l=0, rc=5.5938 Bohr: 2s-sz confined orbital
    l=1, rc=6.8750 Bohr: 2p-sz confined orbital

H-setup:
  name   : Hydrogen
  id     : d65de229564ff8ea4db303e23b6d1ecf
  Z      : 1
  valence: 1
  core   : 0
  charge : 0.0
  file   : /kemi/falco/gpaw-setups-0.9.9672/H.PBE.gz
  cutoffs: 0.48(comp), 0.85(filt), 0.53(core), lmax=2
  valence states:
            energy   radius
    1s(1.00)  -6.494   0.476
    *s      20.717   0.476
    *p       0.000   0.476

LCAO basis set for H:
  Name: sz
  Basis set was loaded from file ./H.sz.basis
  Number of radial functions: 1
  Number of spherical harmonics: 1
    l=0, rc=6.6406 Bohr: 1s-sz confined orbital

Using the PBE Exchange-Correlation Functional.
Spin-Paired Calculation
Total Charge: 0.000000
Fermi Temperature: 0.000000
Wave functions: LCAO
    Diagonalizer: Serial LAPACK
    Atomic Correction: dense with blas
    Datatype: float
Eigensolver: LCAO using direct dense diagonalizer
XC and Coulomb potentials evaluated on a 104*112*104 grid
Interpolation: tri-quintic (5. degree polynomial)
Poisson solver: Jacobi solver with 4 multi-grid levels
    Coarsest grid: 13 x 14 x 13 points
    Stencil: 6*3+1=19 point O(h^6) finite-difference Laplacian
    Tolerance: 2.000000e-10
    Max iterations: 1000
Reference Energy: -1077.589146

Total number of cores used: 8
Domain Decomposition: 2 x 2 x 2

Symmetries present (total): 1

  ( 1  0  0)
  ( 0  1  0)
  ( 0  0  1)

1 k-point (Gamma)
1 k-point in the Irreducible Part of the Brillouin Zone

          k-points in crystal coordinates                weights
   0:     0.00000000    0.00000000    0.00000000          1/1

Mixer Type: Mixer
Linear Mixing Parameter: 0.25
Mixing with 3 Old Densities
No Damping of Long Wave Oscillations

Convergence Criteria:
    Total Energy Change: 0.0005 eV / electron
    Integral of Absolute Density Change: 0.0001 electrons
    Integral of Absolute Eigenstate Change: 4e-08 eV^2
Number of Atoms: 5
Number of Atomic Orbitals: 8
Number of Bands in Calculation: 8
Bands to Converge: Occupied States Only
Number of Valence Electrons: 8
                     log10-error:    Total        Iterations:
           Time      WFS    Density  Energy       Fermi  Poisson
iter:   1  10:31:35                 -20.204343    0      1      
iter:   2  10:31:35         -7.50   -20.204343    0      1      
iter:   3  10:31:36         -7.50   -20.204343    0      1      
------------------------------------
Converged After 3 Iterations.

Energy Contributions Relative to Reference Atoms:(reference = -1077.589146)
-------------------------
Kinetic:        -10.384588
Potential:       +1.043580
External:        +0.000000
XC:             -10.916204
Entropy (-ST):   -0.000000
Local:           +0.052869
-------------------------
Free Energy:    -20.204343
Zero Kelvin:    -20.204343

Fermi Level: -4.30323
 Band  Eigenvalues  Occupancy
    0    -18.21810    2.00000
    1    -10.80555    2.00000
    2    -10.79891    2.00000
    3    -10.79440    2.00000
    4      2.18794    0.00000
    5      3.51880    0.00000
    6      3.52471    0.00000
    7      3.53844    0.00000


Dipole Moment: [-0.00052715 -0.00023888 -0.00013416]

Forces in eV/Ang:
  0 C    -0.01314   -0.00416   -0.00006
  1 H    -0.00756    0.00162    0.00192
  2 H     0.00745   -0.00794   -0.00353
  3 H     0.00634    0.01394   -0.00331
  4 H     0.00653    0.00318    0.01531

Memory estimate
---------------
Process memory now: 66.86 MiB
Calculator  10.99 MiB
    Density  5.47 MiB
        Arrays  3.75 MiB
        Localized functions  0.27 MiB
        Mixer  1.44 MiB
    Hamiltonian  5.27 MiB
        Arrays  2.45 MiB
        XC  0.00 MiB
        Poisson  2.80 MiB
        vbar  0.02 MiB
    Wavefunctions  0.24 MiB
        C [qnM]  0.00 MiB
        S, T [2 x qmm]  0.00 MiB
        P [aqMi]  0.00 MiB
        TCI  0.00 MiB
        BasisFunctions  0.24 MiB
        Eigensolver  0.00 MiB

Positions:
  0 C     4.3578    4.8481    5.0083
  1 H     5.5517    4.8472    5.0079
  2 H     3.9582    5.8498    5.5209
  3 H     3.9584    3.9027    5.6189
  4 H     3.9582    4.7907    3.8844

       .----------------------.  
      /|                      |  
     / |                      |  
    /  |                      |  
   /   |                      |  
  /    |                      |  
 *     |                      |  
 |     |      H               |  
 |     |                      |  
 |     |     H C  H           |  
 |     |      H               |  
 |     |                      |  
 |     .----------------------.  
 |    /                      /   
 |   /                      /    
 |  /                      /     
 | /                      /      
 |/                      /       
 *----------------------*        

Unit Cell:
           Periodic     X           Y           Z      Points  Spacing
  --------------------------------------------------------------------
  1. axis:    yes    9.426670    0.000000    0.000000    52     0.1813
  2. axis:    yes    0.000000    9.745100    0.000000    56     0.1740
  3. axis:    yes    0.000000    0.000000    9.555220    52     0.1838

C-setup:
  name   : Carbon
  id     : 4aa54d4b901d75f77cc0ea3eec22967b
  Z      : 6
  valence: 4
  core   : 2
  charge : 0.0
  file   : /kemi/falco/gpaw-setups-0.9.9672/C.PBE.gz
  cutoffs: 0.64(comp), 1.14(filt), 1.14(core), lmax=2
  valence states:
            energy   radius
    2s(2.00) -13.751   0.635
    2p(2.00)  -5.284   0.635
    *s      13.461   0.635
    *p      21.927   0.635
    *d       0.000   0.635

LCAO basis set for C:
  Name: sz
  Basis set was loaded from file ./C.sz.basis
  Number of radial functions: 2
  Number of spherical harmonics: 4
    l=0, rc=5.5938 Bohr: 2s-sz confined orbital
    l=1, rc=6.8750 Bohr: 2p-sz confined orbital

H-setup:
  name   : Hydrogen
  id     : d65de229564ff8ea4db303e23b6d1ecf
  Z      : 1
  valence: 1
  core   : 0
  charge : 0.0
  file   : /kemi/falco/gpaw-setups-0.9.9672/H.PBE.gz
  cutoffs: 0.48(comp), 0.85(filt), 0.53(core), lmax=2
  valence states:
            energy   radius
    1s(1.00)  -6.494   0.476
    *s      20.717   0.476
    *p       0.000   0.476

LCAO basis set for H:
  Name: sz
  Basis set was loaded from file ./H.sz.basis
  Number of radial functions: 1
  Number of spherical harmonics: 1
    l=0, rc=6.6406 Bohr: 1s-sz confined orbital

Using the PBE Exchange-Correlation Functional.
Spin-Paired Calculation
Total Charge: 0.000000
Fermi Temperature: 0.100000
Wave functions: LCAO
    Diagonalizer: Serial LAPACK
    Atomic Correction: dense with blas
    Datatype: float
Eigensolver: LCAO using direct dense diagonalizer
XC and Coulomb potentials evaluated on a 104*112*104 grid
Interpolation: tri-quintic (5. degree polynomial)
Poisson solver: Jacobi solver with 4 multi-grid levels
    Coarsest grid: 13 x 14 x 13 points
    Stencil: 6*3+1=19 point O(h^6) finite-difference Laplacian
    Tolerance: 2.000000e-10
    Max iterations: 1000
Reference Energy: -1077.589146

Total number of cores used: 8
Domain Decomposition: 2 x 2 x 2

Symmetries present (total): 1

  ( 1  0  0)
  ( 0  1  0)
  ( 0  0  1)

1 k-point (Gamma)
1 k-point in the Irreducible Part of the Brillouin Zone

          k-points in crystal coordinates                weights
   0:     0.00000000    0.00000000    0.00000000          1/1

Mixer Type: Mixer
Linear Mixing Parameter: 0.05
Mixing with 5 Old Densities
Damping of Long Wave Oscillations: 50

Convergence Criteria:
    Total Energy Change: 0.0005 eV / electron
    Integral of Absolute Density Change: 0.0001 electrons
    Integral of Absolute Eigenstate Change: 4e-08 eV^2
Number of Atoms: 5
Number of Atomic Orbitals: 8
Number of Bands in Calculation: 8
Bands to Converge: Occupied States Only
Number of Valence Electrons: 8
                     log10-error:    Total        Iterations:
           Time      WFS    Density  Energy       Fermi  Poisson
iter:   1  10:31:37                 -20.276766    0      19     
iter:   2  10:31:37         -0.99   -20.253042    0      6      
iter:   3  10:31:38         -1.03   -20.193294    0      11     
iter:   4  10:31:38         -1.37   -20.204033    0      9      
iter:   5  10:31:39         -2.37   -20.204185    0      6      
iter:   6  10:31:39         -3.66   -20.204252    0      3      
iter:   7  10:31:39         -4.02   -20.204216    0      2      
------------------------------------
Converged After 7 Iterations.

Energy Contributions Relative to Reference Atoms:(reference = -1077.589146)
-------------------------
Kinetic:        -10.385877
Potential:       +1.045027
External:        +0.000000
XC:             -10.916014
Entropy (-ST):   -0.000000
Local:           +0.052648
-------------------------
Free Energy:    -20.204216
Zero Kelvin:    -20.204216

Fermi Level: -4.73583
 Band  Eigenvalues  Occupancy
    0    -18.00629    2.00000
    1    -10.59354    2.00000
    2    -10.58722    2.00000
    3    -10.58265    2.00000
    4      2.39968    0.00000
    5      3.73028    0.00000
    6      3.73629    0.00000
    7      3.75047    0.00000


Dipole Moment: [-0.00039735 -0.00022912 -0.00023854]
Memory usage: 69.39 MiB
===================================================================
Timing:                                      incl.     excl.
===================================================================
DenseAtomicCorrection:                       0.000     0.000   0.0% |
Distribute overlap matrix:                   0.000     0.000   0.0% |
Force calculation:                           0.323     0.108   0.4% |
 LCAO forces:                                0.215     0.004   0.0% |
  Atomic Hamiltonian force:                  0.003     0.003   0.0% |
  Initial:                                   0.002     0.000   0.0% |
   Get density matrix:                       0.002     0.002   0.0% |
  Paw correction:                            0.003     0.003   0.0% |
  Potential:                                 0.113     0.113   0.4% |
  TCI derivative:                            0.091     0.091   0.3% |
  Wait for sum:                              0.000     0.000   0.0% |
IO:                                          0.070     0.000   0.0% |
 Write:                                      0.069     0.000   0.0% |
  Atomic matrices:                           0.001     0.001   0.0% |
  Band energies:                             0.000     0.000   0.0% |
  Close:                                     0.017     0.017   0.1% |
  Meta data:                                 0.044     0.044   0.2% |
  Projections:                               0.000     0.000   0.0% |
  Pseudo-density:                            0.002     0.002   0.0% |
  Pseudo-potential:                          0.005     0.005   0.0% |
  Pseudo-wavefunctions:                      0.000     0.000   0.0% |
Initialization:                              9.513     0.992   3.5% ||
 Basic WFS set positions:                    0.005     0.004   0.0% |
  Redistribute:                              0.001     0.001   0.0% |
 Basis functions set positions:              0.047     0.047   0.2% |
 LCAO WFS Initialize:                        8.340     0.011   0.0% |
  Density initialize from wavefunctions:     0.125     0.114   0.4% |
   Calculate density matrix:                 0.001     0.001   0.0% |
   Construct density:                        0.011     0.011   0.0% |
   Symmetrize density:                       0.000     0.000   0.0% |
  Hamiltonian:                               8.204     0.009   0.0% |
   Atomic:                                   0.850     0.850   3.0% ||
    XC Correction:                           0.000     0.000   0.0% |
   Communicate energies:                     0.000     0.000   0.0% |
   Hartree integrate/restrict:               0.047     0.047   0.2% |
   Initialize Hamiltonian:                   0.003     0.003   0.0% |
   Poisson:                                  4.232     4.232  15.1% |-----|
   XC 3D grid:                               3.051     3.051  10.9% |---|
   vbar:                                     0.011     0.011   0.0% |
 Redistribute:                               0.003     0.003   0.0% |
 TCI: Calculate S, T, P:                     0.037     0.037   0.1% |
 TCI: Evaluate splines:                      0.088     0.088   0.3% |
Potential matrix:                            0.001     0.001   0.0% |
SCF-cycle:                                  17.943     0.033   0.1% |
 Density:                                    0.443     0.001   0.0% |
  Atomic density matrices:                   0.034     0.034   0.1% |
  Mix:                                       0.356     0.356   1.3% ||
  Multipole moments:                         0.004     0.004   0.0% |
  Normalize:                                 0.004     0.004   0.0% |
  Pseudo density:                            0.044     0.007   0.0% |
   Calculate density matrix:                 0.002     0.002   0.0% |
   Construct density:                        0.035     0.035   0.1% |
   Symmetrize density:                       0.001     0.001   0.0% |
 Hamiltonian:                               17.390     0.031   0.1% |
  Atomic:                                    2.559     2.558   9.2% |---|
   XC Correction:                            0.000     0.000   0.0% |
  Communicate energies:                      0.001     0.001   0.0% |
  Hartree integrate/restrict:                0.146     0.146   0.5% |
  Poisson:                                   5.592     5.592  20.0% |-------|
  XC 3D grid:                                9.028     9.028  32.3% |------------|
  vbar:                                      0.034     0.034   0.1% |
 LCAO eigensolver:                           0.077     0.005   0.0% |
  Calculate projections:                     0.001     0.001   0.0% |
  DenseAtomicCorrection:                     0.007     0.007   0.0% |
  Distribute overlap matrix:                 0.008     0.008   0.0% |
  Orbital Layouts:                           0.008     0.008   0.0% |
  Potential matrix:                          0.046     0.046   0.2% |
Other:                                       0.107     0.107   0.4% |
===================================================================
Total:                                                27.956 100.0%
===================================================================
date: Tue May  2 10:31:39 2017
